 Entering Gaussian System, Link 0=g16
 Input=/Users/asuyarger/Downloads/C2H6_PM6_Opt_Freq_Full.gjf
 Output=/Users/asuyarger/Downloads/C2H6_PM6_Opt_Freq_Full.log
 Initial command:
 /Users/asuyarger/Applications/G16/g16/l1.exe "/Users/asuyarger/Applications/G16/scratch/Gau-93033.inp" -scrdir="/Users/asuyarger/Applications/G16/scratch/"
 Entering Link 1 = /Users/asuyarger/Applications/G16/g16/l1.exe PID=     93034.
  
 Copyright (c) 1988,1990,1992,1993,1995,1998,2003,2009,2016,
            Gaussian, Inc.  All Rights Reserved.
  
 This is part of the Gaussian(R) 16 program.  It is based on
 the Gaussian(R) 09 system (copyright 2009, Gaussian, Inc.),
 the Gaussian(R) 03 system (copyright 2003, Gaussian, Inc.),
 the Gaussian(R) 98 system (copyright 1998, Gaussian, Inc.),
 the Gaussian(R) 94 system (copyright 1995, Gaussian, Inc.),
 the Gaussian 92(TM) system (copyright 1992, Gaussian, Inc.),
 the Gaussian 90(TM) system (copyright 1990, Gaussian, Inc.),
 the Gaussian 88(TM) system (copyright 1988, Gaussian, Inc.),
 the Gaussian 86(TM) system (copyright 1986, Carnegie Mellon
 University), and the Gaussian 82(TM) system (copyright 1983,
 Carnegie Mellon University). Gaussian is a federally registered
 trademark of Gaussian, Inc.
  
 This software contains proprietary and confidential information,
 including trade secrets, belonging to Gaussian, Inc.
  
 This software is provided under written license and may be
 used, copied, transmitted, or stored only in accord with that
 written license.
  
 The following legend is applicable only to US Government
 contracts under FAR:
  
                    RESTRICTED RIGHTS LEGEND
  
 Use, reproduction and disclosure by the US Government is
 subject to restrictions as set forth in subparagraphs (a)
 and (c) of the Commercial Computer Software - Restricted
 Rights clause in FAR 52.227-19.
  
 Gaussian, Inc.
 340 Quinnipiac St., Bldg. 40, Wallingford CT 06492
  
  
 ---------------------------------------------------------------
 Warning -- This program may not be used in any manner that
 competes with the business of Gaussian, Inc. or will provide
 assistance to any competitor of Gaussian, Inc.  The licensee
 of this program is prohibited from giving any competitor of
 Gaussian, Inc. access to this program.  By using this program,
 the user acknowledges that Gaussian, Inc. is engaged in the
 business of creating and licensing software in the field of
 computational chemistry and represents and warrants to the
 licensee that it is not a competitor of Gaussian, Inc. and that
 it will not use this program in any manner prohibited above.
 ---------------------------------------------------------------
  

 Cite this work as:
 Gaussian 16, Revision A.03,
 M. J. Frisch, G. W. Trucks, H. B. Schlegel, G. E. Scuseria, 
 M. A. Robb, J. R. Cheeseman, G. Scalmani, V. Barone, 
 G. A. Petersson, H. Nakatsuji, X. Li, M. Caricato, A. V. Marenich, 
 J. Bloino, B. G. Janesko, R. Gomperts, B. Mennucci, H. P. Hratchian, 
 J. V. Ortiz, A. F. Izmaylov, J. L. Sonnenberg, D. Williams-Young, 
 F. Ding, F. Lipparini, F. Egidi, J. Goings, B. Peng, A. Petrone, 
 T. Henderson, D. Ranasinghe, V. G. Zakrzewski, J. Gao, N. Rega, 
 G. Zheng, W. Liang, M. Hada, M. Ehara, K. Toyota, R. Fukuda, 
 J. Hasegawa, M. Ishida, T. Nakajima, Y. Honda, O. Kitao, H. Nakai, 
 T. Vreven, K. Throssell, J. A. Montgomery, Jr., J. E. Peralta, 
 F. Ogliaro, M. J. Bearpark, J. J. Heyd, E. N. Brothers, K. N. Kudin, 
 V. N. Staroverov, T. A. Keith, R. Kobayashi, J. Normand, 
 K. Raghavachari, A. P. Rendell, J. C. Burant, S. S. Iyengar, 
 J. Tomasi, M. Cossi, J. M. Millam, M. Klene, C. Adamo, R. Cammi, 
 J. W. Ochterski, R. L. Martin, K. Morokuma, O. Farkas, 
 J. B. Foresman, and D. J. Fox, Gaussian, Inc., Wallingford CT, 2016.
 
 ******************************************
 Gaussian 16:  EM64M-G16RevA.03 25-Dec-2016
                 6-Sep-2024 
 ******************************************
 %nprocshared=8
 Will use up to    8 processors via shared memory.
 %mem=8GB
 %chk=C2H6_PM6_Opt_Freq_Full.chk
 ----------------------------------------------------------------------
 #p opt=tight freq pm6 guess=save pop=(hirshfeld,full) geom=connectivit
 y polar
 ----------------------------------------------------------------------
 1/7=10,18=20,19=15,26=1,38=1,57=2/1,3;
 2/9=110,12=2,17=6,18=5,40=1/2;
 3/5=2,25=1,41=3900000,71=1/1,2,3;
 4/35=1/1;
 5/5=2,35=1,38=5,98=1/2;
 6/7=3,28=1,79=1/1;
 7//1,2,3,16;
 1/7=10,18=20,19=15,26=1/3(2);
 2/9=110/2;
 99//99;
 2/9=110/2;
 3/5=2,25=1,41=3900000,71=1,135=20/1,2,3;
 4/5=5,16=3,35=1/1;
 5/5=2,35=1,38=5,98=1/2;
 7//1,2,3,16;
 1/7=10,18=20,19=15,26=1/3(-5);
 2/9=110/2;
 6/7=3,19=2,28=1,79=1/1;
 99/9=1/99;
 Leave Link    1 at Fri Sep  6 16:45:46 2024, MaxMem=  1073741824 cpu:               0.2 elap:               0.0
 (Enter /Users/asuyarger/Applications/G16/g16/l101.exe)
 --------------------------------------------------
 Ethane DFT B3LPY aug-cc-pVTZ Opt Freq - Full - NBO
 --------------------------------------------------
 Symbolic Z-matrix:
 Charge =  0 Multiplicity = 1
 C                    -0.08137   0.28029  0. 
 H                     0.2752   -0.72855   0.00005 
 H                     0.27538   0.78463  -0.87365 
 H                    -1.15137   0.28039  -0.00005 
 C                     0.43197   1.00625   1.2574 
 H                     1.50197   1.00615   1.25745 
 H                     0.07539   2.01508   1.25736 
 H                     0.07522   0.5019    2.13106 
 
 ITRead=  0  0  0  0  0  0  0  0
 MicOpt= -1 -1 -1 -1 -1 -1 -1 -1
 NAtoms=      8 NQM=        8 NQMF=       0 NMMI=      0 NMMIF=      0
                NMic=       0 NMicF=      0.
                    Isotopes and Nuclear Properties:
 (Nuclear quadrupole moments (NQMom) in fm**2, nuclear magnetic moments (NMagM)
  in nuclear magnetons)

  Atom         1           2           3           4           5           6           7           8
 IAtWgt=          12           1           1           1          12           1           1           1
 AtmWgt=  12.0000000   1.0078250   1.0078250   1.0078250  12.0000000   1.0078250   1.0078250   1.0078250
 NucSpn=           0           1           1           1           0           1           1           1
 AtZEff=  -0.0000000  -0.0000000  -0.0000000  -0.0000000  -0.0000000  -0.0000000  -0.0000000  -0.0000000
 NQMom=    0.0000000   0.0000000   0.0000000   0.0000000   0.0000000   0.0000000   0.0000000   0.0000000
 NMagM=    0.0000000   2.7928460   2.7928460   2.7928460   0.0000000   2.7928460   2.7928460   2.7928460
 AtZNuc=   6.0000000   1.0000000   1.0000000   1.0000000   6.0000000   1.0000000   1.0000000   1.0000000
 Leave Link  101 at Fri Sep  6 16:45:46 2024, MaxMem=  1073741824 cpu:               1.2 elap:               0.2
 (Enter /Users/asuyarger/Applications/G16/g16/l103.exe)

 GradGradGradGradGradGradGradGradGradGradGradGradGradGradGradGradGradGrad
 Berny optimization.
 Initialization pass.
                           ----------------------------
                           !    Initial Parameters    !
                           ! (Angstroms and Degrees)  !
 --------------------------                            --------------------------
 ! Name  Definition              Value          Derivative Info.                !
 --------------------------------------------------------------------------------
 ! R1    R(1,2)                  1.07           estimate D2E/DX2                !
 ! R2    R(1,3)                  1.07           estimate D2E/DX2                !
 ! R3    R(1,4)                  1.07           estimate D2E/DX2                !
 ! R4    R(1,5)                  1.54           estimate D2E/DX2                !
 ! R5    R(5,6)                  1.07           estimate D2E/DX2                !
 ! R6    R(5,7)                  1.07           estimate D2E/DX2                !
 ! R7    R(5,8)                  1.07           estimate D2E/DX2                !
 ! A1    A(2,1,3)              109.4712         estimate D2E/DX2                !
 ! A2    A(2,1,4)              109.4712         estimate D2E/DX2                !
 ! A3    A(2,1,5)              109.4712         estimate D2E/DX2                !
 ! A4    A(3,1,4)              109.4712         estimate D2E/DX2                !
 ! A5    A(3,1,5)              109.4712         estimate D2E/DX2                !
 ! A6    A(4,1,5)              109.4712         estimate D2E/DX2                !
 ! A7    A(1,5,6)              109.4712         estimate D2E/DX2                !
 ! A8    A(1,5,7)              109.4712         estimate D2E/DX2                !
 ! A9    A(1,5,8)              109.4712         estimate D2E/DX2                !
 ! A10   A(6,5,7)              109.4712         estimate D2E/DX2                !
 ! A11   A(6,5,8)              109.4712         estimate D2E/DX2                !
 ! A12   A(7,5,8)              109.4712         estimate D2E/DX2                !
 ! D1    D(2,1,5,6)             60.0            estimate D2E/DX2                !
 ! D2    D(2,1,5,7)            180.0            estimate D2E/DX2                !
 ! D3    D(2,1,5,8)            -60.0            estimate D2E/DX2                !
 ! D4    D(3,1,5,6)            -60.0            estimate D2E/DX2                !
 ! D5    D(3,1,5,7)             60.0            estimate D2E/DX2                !
 ! D6    D(3,1,5,8)            180.0            estimate D2E/DX2                !
 ! D7    D(4,1,5,6)            180.0            estimate D2E/DX2                !
 ! D8    D(4,1,5,7)            -60.0            estimate D2E/DX2                !
 ! D9    D(4,1,5,8)             60.0            estimate D2E/DX2                !
 --------------------------------------------------------------------------------
 Trust Radius=3.00D-01 FncErr=1.00D-07 GrdErr=1.00D-07 EigMax=2.50D+02 EigMin=1.00D-04
 Number of steps in this run=     38 maximum allowed number of steps=    100.
 GradGradGradGradGradGradGradGradGradGradGradGradGradGradGradGradGradGrad

 Leave Link  103 at Fri Sep  6 16:45:46 2024, MaxMem=  1073741824 cpu:               0.0 elap:               0.0
 (Enter /Users/asuyarger/Applications/G16/g16/l202.exe)
                          Input orientation:                          
 ---------------------------------------------------------------------
 Center     Atomic      Atomic             Coordinates (Angstroms)
 Number     Number       Type             X           Y           Z
 ---------------------------------------------------------------------
      1          6           0       -0.081374    0.280289   -0.000000
      2          1           0        0.275200   -0.728549    0.000049
      3          1           0        0.275378    0.784631   -0.873651
      4          1           0       -1.151374    0.280387   -0.000049
      5          6           0        0.431968    1.006246    1.257405
      6          1           0        1.501968    1.006148    1.257453
      7          1           0        0.075393    2.015084    1.257356
      8          1           0        0.075215    0.501904    2.131056
 ---------------------------------------------------------------------
                    Distance matrix (angstroms):
                    1          2          3          4          5
     1  C    0.000000
     2  H    1.070000   0.000000
     3  H    1.070000   1.747303   0.000000
     4  H    1.070000   1.747303   1.747303   0.000000
     5  C    1.540000   2.148263   2.148263   2.148263   0.000000
     6  H    2.148263   2.468846   2.468846   3.024610   1.070000
     7  H    2.148263   3.024610   2.468846   2.468846   1.070000
     8  H    2.148263   2.468846   3.024610   2.468846   1.070000
                    6          7          8
     6  H    0.000000
     7  H    1.747303   0.000000
     8  H    1.747303   1.747303   0.000000
 Stoichiometry    C2H6
 Framework group  D3D[C3(C.C),3SGD(H2)]
 Deg. of freedom     3
 Full point group                 D3D     NOp  12
 Largest Abelian subgroup         C2H     NOp   4
 Largest concise Abelian subgroup C2H     NOp   4
                         Standard orientation:                         
 ---------------------------------------------------------------------
 Center     Atomic      Atomic             Coordinates (Angstroms)
 Number     Number       Type             X           Y           Z
 ---------------------------------------------------------------------
      1          6           0       -0.000000   -0.000000    0.770000
      2          1           0       -0.000000    1.008806    1.126667
      3          1           0        0.873651   -0.504403    1.126667
      4          1           0       -0.873651   -0.504403    1.126667
      5          6           0        0.000000    0.000000   -0.770000
      6          1           0        0.873651    0.504403   -1.126667
      7          1           0       -0.000000   -1.008806   -1.126667
      8          1           0       -0.873651    0.504403   -1.126667
 ---------------------------------------------------------------------
 Rotational constants (GHZ):          82.1231828          20.2293845          20.2293845
 Leave Link  202 at Fri Sep  6 16:45:46 2024, MaxMem=  1073741824 cpu:               0.0 elap:               0.0
 (Enter /Users/asuyarger/Applications/G16/g16/l301.exe)
 Standard basis: VSTO-6G (5D, 7F)
 Ernie: Thresh=  0.10000D-02 Tol=  0.10000D-05 Strict=F.
  NNHCO=     0 NNPyr=     0 NCTC=     0               EPep=         0.000000000
    EC=        21.612532827  ECS=         1.305682612   EG=         0.087974988
   EHC=         0.000255514  EAt=       -10.947068944  AtH=         1.042840032
 EPDDG=         0.000000000  ECC=        23.006445940 EAtT=        11.989908975
 There are     5 symmetry adapted cartesian basis functions of AG  symmetry.
 There are     2 symmetry adapted cartesian basis functions of BG  symmetry.
 There are     2 symmetry adapted cartesian basis functions of AU  symmetry.
 There are     5 symmetry adapted cartesian basis functions of BU  symmetry.
 There are     5 symmetry adapted basis functions of AG  symmetry.
 There are     2 symmetry adapted basis functions of BG  symmetry.
 There are     2 symmetry adapted basis functions of AU  symmetry.
 There are     5 symmetry adapted basis functions of BU  symmetry.
    14 basis functions,    84 primitive gaussians,    14 cartesian basis functions
     7 alpha electrons        7 beta electrons
       nuclear repulsion energy        34.9963549151 Hartrees.
 IExCor=    0 DFT=F Ex=HF Corr=None ExCW=0 ScaHFX=  1.000000
 ScaDFX=  1.000000  1.000000  1.000000  1.000000 ScalE2=  1.000000  1.000000
 IRadAn=      5 IRanWt=     -1 IRanGd=            0 ICorTp=0 IEmpDi=  4
 Integral buffers will be    131072 words long.
 Regular integral format.
 Two-electron integral symmetry is turned off.
 Leave Link  301 at Fri Sep  6 16:45:46 2024, MaxMem=  1073741824 cpu:               0.1 elap:               0.0
 (Enter /Users/asuyarger/Applications/G16/g16/l302.exe)
 Do NDO integrals.
 NPDir=0 NMtPBC=     1 NCelOv=     1 NCel=       1 NClECP=     1 NCelD=      1
         NCelK=      1 NCelE2=     1 NClLst=     1 CellRange=     0.0.
 One-electron integrals computed using PRISM.
 NBasis=    14 RedAO= T EigKep=  1.00D+00  NBF=     5     2     2     5
 NBsUse=    14 1.00D-06 EigRej= -1.00D+00 NBFU=     5     2     2     5
 Leave Link  302 at Fri Sep  6 16:45:46 2024, MaxMem=  1073741824 cpu:               0.3 elap:               0.1
 (Enter /Users/asuyarger/Applications/G16/g16/l303.exe)
 DipDrv:  MaxL=1.
 Leave Link  303 at Fri Sep  6 16:45:46 2024, MaxMem=  1073741824 cpu:               0.1 elap:               0.0
 (Enter /Users/asuyarger/Applications/G16/g16/l401.exe)
 Simple Huckel Guess.
 JPrj=0 DoOrth=F DoCkMO=F.
 Initial guess orbital symmetries:
       Occupied  (A1G) (A2U) (EU) (EU) (A1G) (EG) (EG)
       Virtual   (A2U) (EU) (EU) (EG) (EG) (A1G) (A2U)
 The electronic state of the initial guess is 1-A1G.
 Leave Link  401 at Fri Sep  6 16:45:46 2024, MaxMem=  1073741824 cpu:               0.1 elap:               0.0
 (Enter /Users/asuyarger/Applications/G16/g16/l502.exe)
 Keep J ints in memory in canonical form, NReq=859572.
 FoFCou: FMM=F IPFlag=           0 FMFlag=           0 FMFlg1=           0
         NFxFlg=           0 DoJE=F BraDBF=F KetDBF=F FulRan=T
         wScrn=  0.000000 ICntrl=       600 IOpCl=  2 I1Cent=           0 NGrid=           0
         NMat0=    1 NMatS0=     26 NMatT0=    0 NMatD0=    1 NMtDS0=    0 NMtDT0=    0
 Symmetry not used in FoFCou.
 Two-electron integral symmetry not used.
 Closed shell SCF:
 Using DIIS extrapolation, IDIIS=  1040.
 Overlap will be assumed to be unity.
 NGot=  1073741824 LenX=  1073681017 LenY=  1073680135
 Requested convergence on RMS density matrix=1.00D-08 within 128 cycles.
 Requested convergence on MAX density matrix=1.00D-06.
 Requested convergence on             energy=1.00D-06.
 No special actions if energy rises.

 Cycle   1  Pass 1  IDiag  1:
 E= 0.213290424192962E-01
 DIIS: error= 2.19D-02 at cycle   1 NSaved=   1.
 NSaved= 1 IEnMin= 1 EnMin= 0.213290424192962E-01 IErMin= 1 ErrMin= 2.19D-02
 ErrMax= 2.19D-02  0.00D+00 EMaxC= 1.00D-01 BMatC= 1.58D-02 BMatP= 1.58D-02
 IDIUse=3 WtCom= 7.81D-01 WtEn= 2.19D-01
 Coeff-Com:  0.100D+01
 Coeff-En:   0.100D+01
 Coeff:      0.100D+01
 GapD=    2.000 DampG=2.000 DampE=0.500 DampFc=1.0000 IDamp=-1.
 RMSDP=1.25D-02 MaxDP=6.82D-02              OVMax= 0.00D+00

 Cycle   2  Pass 1  IDiag  1:
 E=-0.180007760521335E-01 Delta-E=       -0.039329818471 Rises=F Damp=F
 DIIS: error= 5.38D-03 at cycle   2 NSaved=   2.
 NSaved= 2 IEnMin= 2 EnMin=-0.180007760521335E-01 IErMin= 2 ErrMin= 5.38D-03
 ErrMax= 5.38D-03  0.00D+00 EMaxC= 1.00D-01 BMatC= 1.25D-03 BMatP= 1.58D-02
 IDIUse=3 WtCom= 9.46D-01 WtEn= 5.38D-02
 Coeff-Com: -0.352D+00 0.135D+01
 Coeff-En:   0.000D+00 0.100D+01
 Coeff:     -0.333D+00 0.133D+01
 RMSDP=5.26D-03 MaxDP=2.08D-02 DE=-3.93D-02 OVMax= 0.00D+00

 Cycle   3  Pass 1  IDiag  3:
 E=-0.220983305508256E-01 Delta-E=       -0.004097554499 Rises=F Damp=F
 DIIS: error= 1.25D-03 at cycle   3 NSaved=   3.
 NSaved= 3 IEnMin= 3 EnMin=-0.220983305508256E-01 IErMin= 3 ErrMin= 1.25D-03
 ErrMax= 1.25D-03  0.00D+00 EMaxC= 1.00D-01 BMatC= 5.48D-05 BMatP= 1.25D-03
 IDIUse=3 WtCom= 9.87D-01 WtEn= 1.25D-02
 Coeff-Com:  0.366D+00-0.147D+01 0.211D+01
 Coeff-En:   0.000D+00 0.000D+00 0.100D+01
 Coeff:      0.362D+00-0.145D+01 0.209D+01
 Fock symm off for IB=3 I1=    1 I=    8 J=    2 Cut=1.00D-07 Err=4.55D-03
 Fock matrix is not symmetric: symmetry in diagonalization turned off.
 Gap=     0.605 Goal=   None    Shift=    0.000
 RMSDP=2.13D-03 MaxDP=8.82D-03 DE=-4.10D-03 OVMax= 9.38D-03

 Cycle   4  Pass 1  IDiag  3:
 E=-0.224186608143953E-01 Delta-E=       -0.000320330264 Rises=F Damp=F
 DIIS: error= 4.45D-05 at cycle   4 NSaved=   4.
 NSaved= 4 IEnMin= 4 EnMin=-0.224186608143953E-01 IErMin= 4 ErrMin= 4.45D-05
 ErrMax= 4.45D-05  0.00D+00 EMaxC= 1.00D-01 BMatC= 1.26D-07 BMatP= 5.48D-05
 IDIUse=1 WtCom= 1.00D+00 WtEn= 0.00D+00
 Coeff-Com: -0.823D-01 0.332D+00-0.507D+00 0.126D+01
 Coeff:     -0.823D-01 0.332D+00-0.507D+00 0.126D+01
 Gap=     0.606 Goal=   None    Shift=    0.000
 RMSDP=8.00D-05 MaxDP=3.13D-04 DE=-3.20D-04 OVMax= 3.55D-04

 Cycle   5  Pass 1  IDiag  3:
 E=-0.224191870616437E-01 Delta-E=       -0.000000526247 Rises=F Damp=F
 DIIS: error= 6.65D-06 at cycle   5 NSaved=   5.
 NSaved= 5 IEnMin= 5 EnMin=-0.224191870616437E-01 IErMin= 5 ErrMin= 6.65D-06
 ErrMax= 6.65D-06  0.00D+00 EMaxC= 1.00D-01 BMatC= 1.29D-09 BMatP= 1.26D-07
 IDIUse=1 WtCom= 1.00D+00 WtEn= 0.00D+00
 Coeff-Com: -0.376D-02 0.150D-01-0.187D-01-0.509D-01 0.106D+01
 Coeff:     -0.376D-02 0.150D-01-0.187D-01-0.509D-01 0.106D+01
 Gap=     0.606 Goal=   None    Shift=    0.000
 RMSDP=5.55D-06 MaxDP=2.03D-05 DE=-5.26D-07 OVMax= 2.52D-05

 Cycle   6  Pass 1  IDiag  3:
 E=-0.224191916828715E-01 Delta-E=       -0.000000004621 Rises=F Damp=F
 DIIS: error= 1.38D-06 at cycle   6 NSaved=   6.
 NSaved= 6 IEnMin= 6 EnMin=-0.224191916828715E-01 IErMin= 6 ErrMin= 1.38D-06
 ErrMax= 1.38D-06  0.00D+00 EMaxC= 1.00D-01 BMatC= 6.03D-11 BMatP= 1.29D-09
 IDIUse=1 WtCom= 1.00D+00 WtEn= 0.00D+00
 Coeff-Com: -0.104D-02 0.421D-02-0.745D-02 0.419D-01-0.427D+00 0.139D+01
 Coeff:     -0.104D-02 0.421D-02-0.745D-02 0.419D-01-0.427D+00 0.139D+01
 Gap=     0.606 Goal=   None    Shift=    0.000
 RMSDP=1.40D-06 MaxDP=4.69D-06 DE=-4.62D-09 OVMax= 9.36D-06

 Cycle   7  Pass 1  IDiag  3:
 E=-0.224191919075594E-01 Delta-E=       -0.000000000225 Rises=F Damp=F
 DIIS: error= 1.39D-07 at cycle   7 NSaved=   7.
 NSaved= 7 IEnMin= 7 EnMin=-0.224191919075594E-01 IErMin= 7 ErrMin= 1.39D-07
 ErrMax= 1.39D-07  0.00D+00 EMaxC= 1.00D-01 BMatC= 4.59D-13 BMatP= 6.03D-11
 IDIUse=1 WtCom= 1.00D+00 WtEn= 0.00D+00
 Coeff-Com:  0.240D-04-0.108D-03 0.757D-03-0.158D-01 0.230D+00-0.824D+00
 Coeff-Com:  0.161D+01
 Coeff:      0.240D-04-0.108D-03 0.757D-03-0.158D-01 0.230D+00-0.824D+00
 Coeff:      0.161D+01
 Gap=     0.606 Goal=   None    Shift=    0.000
 RMSDP=1.48D-07 MaxDP=4.99D-07 DE=-2.25D-10 OVMax= 1.34D-06

 Cycle   8  Pass 1  IDiag  3:
 E=-0.224191919094778E-01 Delta-E=       -0.000000000002 Rises=F Damp=F
 DIIS: error= 2.68D-09 at cycle   8 NSaved=   8.
 NSaved= 8 IEnMin= 8 EnMin=-0.224191919094778E-01 IErMin= 8 ErrMin= 2.68D-09
 ErrMax= 2.68D-09  0.00D+00 EMaxC= 1.00D-01 BMatC= 1.25D-16 BMatP= 4.59D-13
 IDIUse=1 WtCom= 1.00D+00 WtEn= 0.00D+00
 Coeff-Com: -0.115D-04 0.566D-04-0.599D-03 0.135D-01-0.199D+00 0.715D+00
 Coeff-Com: -0.139D+01 0.186D+01
 Coeff:     -0.115D-04 0.566D-04-0.599D-03 0.135D-01-0.199D+00 0.715D+00
 Coeff:     -0.139D+01 0.186D+01
 Gap=     0.606 Goal=   None    Shift=    0.000
 RMSDP=3.32D-09 MaxDP=1.35D-08 DE=-1.92D-12 OVMax= 2.95D-08

 Cycle   9  Pass 2  IDiag  1:
 SCF Done:  E(RPM6) = -0.224191919095E-01 A.U. after    9 cycles
            NFock=  8  Conv=0.33D-08     -V/T= 0.9988
 KE=-1.900210456734D+01 PE=-4.241697314836D+01 EE= 2.640030360870D+01
 Leave Link  502 at Fri Sep  6 16:45:46 2024, MaxMem=  1073741824 cpu:               0.2 elap:               0.0
 (Enter /Users/asuyarger/Applications/G16/g16/l601.exe)
 Copying SCF densities to generalized density rwf, IOpCl= 0 IROHF=0.

 **********************************************************************

            Population analysis using the SCF density.

 **********************************************************************

 Orbital symmetries:
       Occupied  (A1G) (A2U) (EU) (EU) (A1G) (EG) (EG)
       Virtual   (A2U) (EU) (EU) (EG) (EG) (A1G) (A2U)
 The electronic state is 1-A1G.
 Alpha  occ. eigenvalues --   -1.01290  -0.80763  -0.55955  -0.55955  -0.47402
 Alpha  occ. eigenvalues --   -0.44780  -0.44780
 Alpha virt. eigenvalues --    0.15772   0.21741   0.21741   0.23347   0.23347
 Alpha virt. eigenvalues --    0.25916   0.26130
     Molecular Orbital Coefficients:
                           1         2         3         4         5
                       (A1G)--O  (A2U)--O   (EU)--O   (EU)--O  (A1G)--O
     Eigenvalues --    -1.01290  -0.80763  -0.55955  -0.55955  -0.47402
   1 1   C  1S          0.55683   0.47177   0.00000   0.00000  -0.05469
   2        1PX        -0.00000   0.00000   0.55435  -0.01261   0.00000
   3        1PY         0.00000  -0.00000   0.01261   0.55435   0.00000
   4        1PZ        -0.10885   0.25147  -0.00000  -0.00000   0.66183
   5 2   H  1S          0.24365   0.26721   0.00815   0.35818   0.14023
   6 3   H  1S          0.24365   0.26721   0.30612  -0.18615   0.14023
   7 4   H  1S          0.24365   0.26721  -0.31427  -0.17203   0.14023
   8 5   C  1S          0.55683  -0.47177  -0.00000   0.00000  -0.05469
   9        1PX         0.00000  -0.00000   0.55435  -0.01261   0.00000
  10        1PY        -0.00000   0.00000   0.01261   0.55435   0.00000
  11        1PZ         0.10885   0.25147   0.00000   0.00000  -0.66183
  12 6   H  1S          0.24365  -0.26721   0.31427   0.17203   0.14023
  13 7   H  1S          0.24365  -0.26721  -0.00815  -0.35818   0.14023
  14 8   H  1S          0.24365  -0.26721  -0.30612   0.18615   0.14023
                           6         7         8         9        10
                        (EG)--O   (EG)--O  (A2U)--V   (EU)--V   (EU)--V
     Eigenvalues --    -0.44780  -0.44780   0.15772   0.21741   0.21741
   1 1   C  1S          0.00000   0.00000  -0.21491   0.00000   0.00000
   2        1PX         0.52381  -0.02035  -0.00000   0.43743   0.03452
   3        1PY         0.02035   0.52381   0.00000   0.03452  -0.43743
   4        1PZ        -0.00000   0.00000   0.65914   0.00000   0.00000
   5 2   H  1S          0.01504   0.38718  -0.08030  -0.03562   0.45134
   6 3   H  1S          0.32779  -0.20662  -0.08030  -0.37306  -0.25652
   7 4   H  1S         -0.34283  -0.18057  -0.08030   0.40868  -0.19482
   8 5   C  1S          0.00000  -0.00000   0.21491   0.00000   0.00000
   9        1PX        -0.52381   0.02035  -0.00000   0.43743   0.03452
  10        1PY        -0.02035  -0.52381   0.00000   0.03452  -0.43743
  11        1PZ        -0.00000  -0.00000   0.65914   0.00000  -0.00000
  12 6   H  1S         -0.34283  -0.18057   0.08030  -0.40868   0.19482
  13 7   H  1S          0.01504   0.38718   0.08030   0.03562  -0.45134
  14 8   H  1S          0.32779  -0.20662   0.08030   0.37306   0.25652
                          11        12        13        14
                        (EG)--V   (EG)--V  (A1G)--V  (A2U)--V
     Eigenvalues --     0.23347   0.23347   0.25916   0.26130
   1 1   C  1S          0.00000  -0.00000   0.43238   0.48088
   2        1PX         0.44597   0.16224  -0.00000  -0.00000
   3        1PY        -0.16224   0.44597   0.00000   0.00000
   4        1PZ         0.00000  -0.00000   0.22390   0.04787
   5 2   H  1S          0.14632  -0.40223  -0.29604  -0.29803
   6 3   H  1S         -0.42150   0.07439  -0.29604  -0.29803
   7 4   H  1S          0.27518   0.32783  -0.29604  -0.29803
   8 5   C  1S         -0.00000   0.00000   0.43238  -0.48088
   9        1PX        -0.44597  -0.16224   0.00000   0.00000
  10        1PY         0.16224  -0.44597   0.00000  -0.00000
  11        1PZ        -0.00000   0.00000  -0.22390   0.04787
  12 6   H  1S          0.27518   0.32783  -0.29604   0.29803
  13 7   H  1S          0.14632  -0.40223  -0.29604   0.29803
  14 8   H  1S         -0.42150   0.07439  -0.29604   0.29803
     Density Matrix:
                           1         2         3         4         5
   1 1   C  1S          1.07123
   2        1PX         0.00000   1.16451
   3        1PY         0.00000   0.00000   1.16451
   4        1PZ         0.04365  -0.00000   0.00000   1.02621
   5 2   H  1S          0.50812   0.00000   0.80355   0.26696   0.85785
   6 3   H  1S          0.50812   0.69590  -0.40178   0.26696   0.02236
   7 4   H  1S          0.50812  -0.69590  -0.40178   0.26696   0.02236
   8 5   C  1S          0.18097  -0.00000  -0.00000  -0.43089   0.00388
   9        1PX         0.00000   0.06533  -0.00000   0.00000  -0.00000
  10        1PY        -0.00000   0.00000   0.06533   0.00000  -0.00892
  11        1PZ         0.43089   0.00000  -0.00000  -0.77326   0.00182
  12 6   H  1S          0.00388  -0.00772  -0.00446  -0.00182  -0.00652
  13 7   H  1S          0.00388   0.00000   0.00892  -0.00182   0.05881
  14 8   H  1S          0.00388   0.00772  -0.00446  -0.00182  -0.00652
                           6         7         8         9        10
   6 3   H  1S          0.85785
   7 4   H  1S          0.02236   0.85785
   8 5   C  1S          0.00388   0.00388   1.07123
   9        1PX        -0.00772   0.00772  -0.00000   1.16451
  10        1PY         0.00446   0.00446   0.00000  -0.00000   1.16451
  11        1PZ         0.00182   0.00182  -0.04365   0.00000  -0.00000
  12 6   H  1S         -0.00652   0.05881   0.50812   0.69590   0.40178
  13 7   H  1S         -0.00652  -0.00652   0.50812  -0.00000  -0.80355
  14 8   H  1S          0.05881  -0.00652   0.50812  -0.69590   0.40178
                          11        12        13        14
  11        1PZ         1.02621
  12 6   H  1S         -0.26696   0.85785
  13 7   H  1S         -0.26696   0.02236   0.85785
  14 8   H  1S         -0.26696   0.02236   0.02236   0.85785
    Full Mulliken population analysis:
                           1         2         3         4         5
   1 1   C  1S          1.07123
   2        1PX         0.00000   1.16451
   3        1PY         0.00000   0.00000   1.16451
   4        1PZ         0.00000   0.00000   0.00000   1.02621
   5 2   H  1S          0.00000   0.00000   0.00000   0.00000   0.85785
   6 3   H  1S          0.00000   0.00000   0.00000   0.00000   0.00000
   7 4   H  1S          0.00000   0.00000   0.00000   0.00000   0.00000
   8 5   C  1S          0.00000   0.00000   0.00000   0.00000   0.00000
   9        1PX         0.00000   0.00000   0.00000   0.00000   0.00000
  10        1PY         0.00000   0.00000   0.00000   0.00000   0.00000
  11        1PZ         0.00000   0.00000   0.00000   0.00000   0.00000
  12 6   H  1S          0.00000   0.00000   0.00000   0.00000   0.00000
  13 7   H  1S          0.00000   0.00000   0.00000   0.00000   0.00000
  14 8   H  1S          0.00000   0.00000   0.00000   0.00000   0.00000
                           6         7         8         9        10
   6 3   H  1S          0.85785
   7 4   H  1S          0.00000   0.85785
   8 5   C  1S          0.00000   0.00000   1.07123
   9        1PX         0.00000   0.00000   0.00000   1.16451
  10        1PY         0.00000   0.00000   0.00000   0.00000   1.16451
  11        1PZ         0.00000   0.00000   0.00000   0.00000   0.00000
  12 6   H  1S          0.00000   0.00000   0.00000   0.00000   0.00000
  13 7   H  1S          0.00000   0.00000   0.00000   0.00000   0.00000
  14 8   H  1S          0.00000   0.00000   0.00000   0.00000   0.00000
                          11        12        13        14
  11        1PZ         1.02621
  12 6   H  1S          0.00000   0.85785
  13 7   H  1S          0.00000   0.00000   0.85785
  14 8   H  1S          0.00000   0.00000   0.00000   0.85785
     Gross orbital populations:
                           1
   1 1   C  1S          1.07123
   2        1PX         1.16451
   3        1PY         1.16451
   4        1PZ         1.02621
   5 2   H  1S          0.85785
   6 3   H  1S          0.85785
   7 4   H  1S          0.85785
   8 5   C  1S          1.07123
   9        1PX         1.16451
  10        1PY         1.16451
  11        1PZ         1.02621
  12 6   H  1S          0.85785
  13 7   H  1S          0.85785
  14 8   H  1S          0.85785
          Condensed to atoms (all electrons):
               1          2          3          4          5          6
     1  C    4.426449   0.000000   0.000000   0.000000   0.000000   0.000000
     2  H    0.000000   0.857850   0.000000   0.000000   0.000000   0.000000
     3  H    0.000000   0.000000   0.857850   0.000000   0.000000   0.000000
     4  H    0.000000   0.000000   0.000000   0.857850   0.000000   0.000000
     5  C    0.000000   0.000000   0.000000   0.000000   4.426449   0.000000
     6  H    0.000000   0.000000   0.000000   0.000000   0.000000   0.857850
     7  H    0.000000   0.000000   0.000000   0.000000   0.000000   0.000000
     8  H    0.000000   0.000000   0.000000   0.000000   0.000000   0.000000
               7          8
     1  C    0.000000   0.000000
     2  H    0.000000   0.000000
     3  H    0.000000   0.000000
     4  H    0.000000   0.000000
     5  C    0.000000   0.000000
     6  H    0.000000   0.000000
     7  H    0.857850   0.000000
     8  H    0.000000   0.857850
 Mulliken charges:
               1
     1  C   -0.426449
     2  H    0.142150
     3  H    0.142150
     4  H    0.142150
     5  C   -0.426449
     6  H    0.142150
     7  H    0.142150
     8  H    0.142150
 Sum of Mulliken charges =   0.00000
 Mulliken charges with hydrogens summed into heavy atoms:
               1
     1  C    0.000000
     5  C    0.000000
 Charge=              0.0000 electrons
 Dipole moment (field-independent basis, Debye):
    X=             -0.0000    Y=              0.0000    Z=              0.0000  Tot=              0.0000
 N-N= 3.499635491509D+01 E-N=-4.241697314923D+01  KE=-1.900210456734D+01
 Symmetry AG   KE=-8.770266943262D+00
 Symmetry BG   KE=-2.158725914209D+00
 Symmetry AU   KE=-2.501635372411D+00
 Symmetry BU   KE=-5.571476337461D+00
 StAtR1:  DoIntr=F IAtCor=3 NETot=      14 Failed=F Sum=  4.00D+00 SumC=  0.00D+00
 There are a total of      180380 grid points.
 ElSum from          density=       21.9949367973
 ElSum from atomic densities=       17.9999989251

 Hirshfeld populations at iteration   1 (CX, CA, CB, DipXYZ):
               1          2          3          4          5          6
     1  C    0.000000   3.335016   3.335016  -0.000000  -0.000002   0.370598
     2  H    0.000002   0.721240   0.721240  -0.000000  -0.044974  -0.067288
     3  H    0.000002   0.721239   0.721239  -0.038949   0.022487  -0.067288
     4  H    0.000002   0.721239   0.721239   0.038949   0.022487  -0.067288
     5  C    0.000000   3.335016   3.335016  -0.000000   0.000002  -0.370598
     6  H    0.000002   0.721239   0.721239  -0.038949  -0.022487   0.067288
     7  H    0.000002   0.721240   0.721240   0.000000   0.044974   0.067288
     8  H    0.000002   0.721239   0.721239   0.038949  -0.022487   0.067288
       Tot   0.000013  10.997468  10.997468  -0.000000  -0.000000   0.000000

 Dip from Atomic Chgs             -0.000000  -0.000000   0.000000
         Total Dipole             -0.000000  -0.000000   0.000000

 Hirshfeld charges, spin densities, dipoles, and CM5 charges using IRadAn=      5:
              Q-H        S-H        Dx         Dy         Dz        Q-CM5   
     1  C   -2.670032   0.000000  -0.000000  -0.000002   0.370598  -2.831086
     2  H   -0.442479   0.000000  -0.000000  -0.044974  -0.067288  -0.388794
     3  H   -0.442479   0.000000  -0.038949   0.022487  -0.067288  -0.388794
     4  H   -0.442479   0.000000   0.038949   0.022487  -0.067288  -0.388794
     5  C   -2.670032   0.000000  -0.000000   0.000002  -0.370598  -2.831086
     6  H   -0.442479   0.000000  -0.038949  -0.022487   0.067288  -0.388794
     7  H   -0.442479   0.000000   0.000000   0.044974   0.067288  -0.388794
     8  H   -0.442479   0.000000   0.038949  -0.022487   0.067288  -0.388794
       Tot  -7.994937   0.000000  -0.000000  -0.000000   0.000000  -7.994937
 Hirshfeld charges with hydrogens summed into heavy atoms:
              Q-H       Q-CM5   
     1  C   -3.997468  -3.997468
     5  C   -3.997468  -3.997468
 
 EQQ= 0.000000000000E+00 EQD= 0.000000000000E+00 EDD=-0.211616740140E-01
 EQQ+QD+DD=-0.211616740140E-01
 
 Orbital energies and kinetic energies (alpha):
                                 1                 2
   1         (A1G)--O         -1.012895         -1.850854
   2         (A2U)--O         -0.807628         -1.534920
   3         (EU)--O          -0.559550         -1.250818
   4         (EU)--O          -0.559550         -1.250818
   5         (A1G)--O         -0.474015         -1.454916
   6         (EG)--O          -0.447799         -1.079363
   7         (EG)--O          -0.447799         -1.079363
   8         (A2U)--V          0.157717         -1.290333
   9         (EU)--V           0.217405         -0.634766
  10         (EU)--V           0.217405         -0.634766
  11         (EG)--V           0.233470         -0.694324
  12         (EG)--V           0.233470         -0.694324
  13         (A1G)--V          0.259162         -0.788395
  14         (A2U)--V          0.261299         -0.803117
 Total kinetic energy from orbitals=-1.900210456734D+01
 Leave Link  601 at Fri Sep  6 16:45:46 2024, MaxMem=  1073741824 cpu:               0.5 elap:               0.1
 (Enter /Users/asuyarger/Applications/G16/g16/l701.exe)
 ... and contract with generalized density number  0.
 Compute integral first derivatives.
 Leave Link  701 at Fri Sep  6 16:45:46 2024, MaxMem=  1073741824 cpu:               0.3 elap:               0.1
 (Enter /Users/asuyarger/Applications/G16/g16/l702.exe)
 L702 exits ... SP integral derivatives will be done elsewhere.
 Leave Link  702 at Fri Sep  6 16:45:46 2024, MaxMem=  1073741824 cpu:               0.1 elap:               0.0
 (Enter /Users/asuyarger/Applications/G16/g16/l703.exe)
 Integral derivatives from FoFJK, PRISM(SPDF).
 Compute integral first derivatives, UseDBF=F ICtDFT=           0.
 Calling FoFJK, ICntrl=      2127 FMM=F ISym2X=1 I1Cent= 0 IOpClX= 0 NMat=1 NMatS=1 NMatT=0.
 FoFJK:  IHMeth=40 ICntrl=    2127 DoSepK=F KAlg= 0 I1Cent=           0 FoldK=F
 IRaf=         0 NMat=       1 IRICut=       1 DoRegI=T DoRafI=F ISym2E= 1 IDoP0=3 IntGTp=3.
 FoFCou: FMM=F IPFlag=           0 FMFlag=      100000 FMFlg1=         800
         NFxFlg=           0 DoJE=F BraDBF=F KetDBF=F FulRan=T
         wScrn=  0.000000 ICntrl=      2127 IOpCl=  0 I1Cent=           0 NGrid=           0
         NMat0=    1 NMatS0=      1 NMatT0=    0 NMatD0=    1 NMtDS0=    0 NMtDT0=    0
 Petite list used in FoFCou.
 Leave Link  703 at Fri Sep  6 16:45:46 2024, MaxMem=  1073741824 cpu:               0.2 elap:               0.0
 (Enter /Users/asuyarger/Applications/G16/g16/l716.exe)
 Dipole        =-1.33226763D-15 1.34336986D-14 1.33226763D-15
 ***** Axes restored to original set *****
 -------------------------------------------------------------------
 Center     Atomic                   Forces (Hartrees/Bohr)
 Number     Number              X              Y              Z
 -------------------------------------------------------------------
      1        6           0.006974295    0.009862886    0.017083166
      2        1           0.002923252   -0.013716554   -0.003143004
      3        1           0.002925353    0.004134971   -0.013450356
      4        1          -0.013906553   -0.001813778   -0.003144156
      5        6          -0.006974295   -0.009862886   -0.017083166
      6        1           0.013906553    0.001813778    0.003144156
      7        1          -0.002923252    0.013716554    0.003143004
      8        1          -0.002925353   -0.004134971    0.013450356
 -------------------------------------------------------------------
 Cartesian Forces:  Max     0.017083166 RMS     0.009387292
 Leave Link  716 at Fri Sep  6 16:45:46 2024, MaxMem=  1073741824 cpu:               0.1 elap:               0.0
 (Enter /Users/asuyarger/Applications/G16/g16/l103.exe)

 GradGradGradGradGradGradGradGradGradGradGradGradGradGradGradGradGradGrad
 Berny optimization.
 FormGI is forming the generalized inverse of G from B-inverse, IUseBI=4.
 Internal  Forces:  Max     0.013906531 RMS     0.006898577
 Search for a local minimum.
 Step number   1 out of a maximum of   38
 All quantities printed in internal units (Hartrees-Bohrs-Radians)
 RMS Force = .68986D-02 SwitMx=.10000D-02 MixMth= 1
 Mixed Optimization -- RFO/linear search
 Second derivative matrix not updated -- first step.
 ITU=  0
     Eigenvalues ---    0.00237   0.05720   0.05720   0.05720   0.05720
     Eigenvalues ---    0.16000   0.16000   0.16000   0.16000   0.16000
     Eigenvalues ---    0.16000   0.28519   0.37230   0.37230   0.37230
     Eigenvalues ---    0.37230   0.37230   0.37230
 RFO step:  Lambda=-4.10406248D-03 EMin= 2.36824109D-03
 Linear search not attempted -- first point.
 Iteration  1 RMS(Cart)=  0.02938344 RMS(Int)=  0.00027686
 Iteration  2 RMS(Cart)=  0.00028723 RMS(Int)=  0.00016658
 Iteration  3 RMS(Cart)=  0.00000011 RMS(Int)=  0.00016658
 ITry= 1 IFail=0 DXMaxC= 6.06D-02 DCOld= 1.00D+10 DXMaxT= 3.00D-01 DXLimC= 3.00D+00 Rises=F
 ClnCor:  largest displacement from symmetrization is 4.17D-10 for atom     7.
 Variable       Old X    -DE/DX   Delta X   Delta X   Delta X     New X
                                 (Linear)    (Quad)   (Total)
    R1        2.02201   0.01391   0.00000   0.03695   0.03695   2.05895
    R2        2.02201   0.01391   0.00000   0.03695   0.03695   2.05895
    R3        2.02201   0.01391   0.00000   0.03695   0.03695   2.05895
    R4        2.91018   0.00325   0.00000   0.01124   0.01124   2.92142
    R5        2.02201   0.01391   0.00000   0.03695   0.03695   2.05895
    R6        2.02201   0.01391   0.00000   0.03695   0.03695   2.05895
    R7        2.02201   0.01391   0.00000   0.03695   0.03695   2.05895
    A1        1.91063  -0.00367   0.00000  -0.02236  -0.02261   1.88802
    A2        1.91063  -0.00367   0.00000  -0.02236  -0.02261   1.88802
    A3        1.91063   0.00367   0.00000   0.02236   0.02210   1.93274
    A4        1.91063  -0.00367   0.00000  -0.02236  -0.02261   1.88802
    A5        1.91063   0.00367   0.00000   0.02236   0.02210   1.93274
    A6        1.91063   0.00367   0.00000   0.02236   0.02210   1.93274
    A7        1.91063   0.00367   0.00000   0.02236   0.02210   1.93274
    A8        1.91063   0.00367   0.00000   0.02236   0.02210   1.93274
    A9        1.91063   0.00367   0.00000   0.02236   0.02210   1.93274
   A10        1.91063  -0.00367   0.00000  -0.02236  -0.02261   1.88802
   A11        1.91063  -0.00367   0.00000  -0.02236  -0.02261   1.88802
   A12        1.91063  -0.00367   0.00000  -0.02236  -0.02261   1.88802
    D1        1.04720  -0.00000   0.00000  -0.00000   0.00000   1.04720
    D2        3.14159  -0.00000   0.00000  -0.00000   0.00000   3.14159
    D3       -1.04720  -0.00000   0.00000  -0.00000   0.00000  -1.04720
    D4       -1.04720  -0.00000   0.00000  -0.00000   0.00000  -1.04720
    D5        1.04720  -0.00000   0.00000  -0.00000   0.00000   1.04720
    D6        3.14159  -0.00000   0.00000  -0.00000   0.00000   3.14159
    D7        3.14159   0.00000   0.00000  -0.00000   0.00000   3.14159
    D8       -1.04720   0.00000   0.00000  -0.00000   0.00000  -1.04720
    D9        1.04720   0.00000   0.00000  -0.00000   0.00000   1.04720
         Item               Value     Threshold  Converged?
 Maximum Force            0.013907     0.000015     NO 
 RMS     Force            0.006899     0.000010     NO 
 Maximum Displacement     0.060615     0.000060     NO 
 RMS     Displacement     0.029494     0.000040     NO 
 Predicted change in Energy=-2.081343D-03
 Lowest energy point so far.  Saving SCF results.
 GradGradGradGradGradGradGradGradGradGradGradGradGradGradGradGradGradGrad

 Leave Link  103 at Fri Sep  6 16:45:46 2024, MaxMem=  1073741824 cpu:               0.1 elap:               0.0
 (Enter /Users/asuyarger/Applications/G16/g16/l202.exe)
                          Input orientation:                          
 ---------------------------------------------------------------------
 Center     Atomic      Atomic             Coordinates (Angstroms)
 Number     Number       Type             X           Y           Z
 ---------------------------------------------------------------------
      1          6           0       -0.082365    0.278888   -0.002428
      2          1           0        0.269285   -0.752146   -0.023232
      3          1           0        0.269465    0.776267   -0.905728
      4          1           0       -1.171650    0.266946   -0.023331
      5          6           0        0.432959    1.007647    1.259832
      6          1           0        1.522244    1.019589    1.280736
      7          1           0        0.081309    2.038681    1.280637
      8          1           0        0.081129    0.510269    2.163132
 ---------------------------------------------------------------------
                    Distance matrix (angstroms):
                    1          2          3          4          5
     1  C    0.000000
     2  H    1.089551   0.000000
     3  H    1.089551   1.764892   0.000000
     4  H    1.089551   1.764892   1.764892   0.000000
     5  C    1.545947   2.184014   2.184014   2.184014   0.000000
     6  H    2.184014   2.531656   2.531656   3.086118   1.089551
     7  H    2.184014   3.086118   2.531656   2.531656   1.089551
     8  H    2.184014   2.531656   3.086118   2.531656   1.089551
                    6          7          8
     6  H    0.000000
     7  H    1.764892   0.000000
     8  H    1.764892   1.764892   0.000000
 Stoichiometry    C2H6
 Framework group  D3D[C3(C.C),3SGD(H2)]
 Deg. of freedom     3
 Full point group                 D3D     NOp  12
 RotChk:  IX=0 Diff= 2.82D-15
 Largest Abelian subgroup         C2H     NOp   4
 Largest concise Abelian subgroup C2H     NOp   4
                         Standard orientation:                         
 ---------------------------------------------------------------------
 Center     Atomic      Atomic             Coordinates (Angstroms)
 Number     Number       Type             X           Y           Z
 ---------------------------------------------------------------------
      1          6           0        0.000000   -0.000000    0.772973
      2          1           0       -0.000000    1.018961    1.158771
      3          1           0        0.882446   -0.509480    1.158771
      4          1           0       -0.882446   -0.509480    1.158771
      5          6           0        0.000000    0.000000   -0.772973
      6          1           0        0.882446    0.509480   -1.158771
      7          1           0       -0.000000   -1.018961   -1.158771
      8          1           0       -0.882446    0.509480   -1.158771
 ---------------------------------------------------------------------
 Rotational constants (GHZ):          80.4944479          19.7425494          19.7425494
 Leave Link  202 at Fri Sep  6 16:45:46 2024, MaxMem=  1073741824 cpu:               0.0 elap:               0.0
 (Enter /Users/asuyarger/Applications/G16/g16/l301.exe)
 Standard basis: VSTO-6G (5D, 7F)
 Ernie: Thresh=  0.10000D-02 Tol=  0.10000D-05 Strict=F.
  NNHCO=     0 NNPyr=     0 NCTC=     0               EPep=         0.000000000
    EC=        21.403693449  ECS=         1.240349385   EG=         0.086489932
   EHC=         0.000207259  EAt=       -10.947068944  AtH=         1.042840032
 EPDDG=         0.000000000  ECC=        22.730740024 EAtT=        11.989908975
 There are     5 symmetry adapted cartesian basis functions of AG  symmetry.
 There are     2 symmetry adapted cartesian basis functions of BG  symmetry.
 There are     2 symmetry adapted cartesian basis functions of AU  symmetry.
 There are     5 symmetry adapted cartesian basis functions of BU  symmetry.
 There are     5 symmetry adapted basis functions of AG  symmetry.
 There are     2 symmetry adapted basis functions of BG  symmetry.
 There are     2 symmetry adapted basis functions of AU  symmetry.
 There are     5 symmetry adapted basis functions of BU  symmetry.
    14 basis functions,    84 primitive gaussians,    14 cartesian basis functions
     7 alpha electrons        7 beta electrons
       nuclear repulsion energy        34.7206489997 Hartrees.
 IExCor=    0 DFT=F Ex=HF Corr=None ExCW=0 ScaHFX=  1.000000
 ScaDFX=  1.000000  1.000000  1.000000  1.000000 ScalE2=  1.000000  1.000000
 IRadAn=      5 IRanWt=     -1 IRanGd=            0 ICorTp=0 IEmpDi=  4
 Integral buffers will be    131072 words long.
 Regular integral format.
 Two-electron integral symmetry is turned off.
 Leave Link  301 at Fri Sep  6 16:45:46 2024, MaxMem=  1073741824 cpu:               0.1 elap:               0.0
 (Enter /Users/asuyarger/Applications/G16/g16/l302.exe)
 Do NDO integrals.
 NPDir=0 NMtPBC=     1 NCelOv=     1 NCel=       1 NClECP=     1 NCelD=      1
         NCelK=      1 NCelE2=     1 NClLst=     1 CellRange=     0.0.
 One-electron integrals computed using PRISM.
 NBasis=    14 RedAO= T EigKep=  1.00D+00  NBF=     5     2     2     5
 NBsUse=    14 1.00D-06 EigRej= -1.00D+00 NBFU=     5     2     2     5
 Leave Link  302 at Fri Sep  6 16:45:46 2024, MaxMem=  1073741824 cpu:               0.3 elap:               0.1
 (Enter /Users/asuyarger/Applications/G16/g16/l303.exe)
 DipDrv:  MaxL=1.
 Leave Link  303 at Fri Sep  6 16:45:46 2024, MaxMem=  1073741824 cpu:               0.1 elap:               0.0
 (Enter /Users/asuyarger/Applications/G16/g16/l401.exe)
 Initial guess from the checkpoint file:  "C2H6_PM6_Opt_Freq_Full.chk"
 B after Tr=     0.000000    0.000000    0.000000
         Rot=    1.000000   -0.000000   -0.000000   -0.000000 Ang=   0.00 deg.
 Guess basis will be translated and rotated to current coordinates.
 JPrj=0 DoOrth=T DoCkMO=T.
 Initial guess orbital symmetries:
       Occupied  (A1G) (A2U) (EU) (EU) (A1G) (EG) (EG)
       Virtual   (A2U) (EU) (EU) (EG) (EG) (A1G) (A2U)
 The electronic state of the initial guess is 1-A1G.
 Leave Link  401 at Fri Sep  6 16:45:47 2024, MaxMem=  1073741824 cpu:               0.3 elap:               0.0
 (Enter /Users/asuyarger/Applications/G16/g16/l502.exe)
 Keep J ints in memory in canonical form, NReq=859572.
 FoFCou: FMM=F IPFlag=           0 FMFlag=           0 FMFlg1=           0
         NFxFlg=           0 DoJE=F BraDBF=F KetDBF=F FulRan=T
         wScrn=  0.000000 ICntrl=       600 IOpCl=  2 I1Cent=           0 NGrid=           0
         NMat0=    1 NMatS0=     26 NMatT0=    0 NMatD0=    1 NMtDS0=    0 NMtDT0=    0
 Symmetry not used in FoFCou.
 Two-electron integral symmetry not used.
 Closed shell SCF:
 Using DIIS extrapolation, IDIIS=  1040.
 Overlap will be assumed to be unity.
 NGot=  1073741824 LenX=  1073681017 LenY=  1073680135
 Requested convergence on RMS density matrix=1.00D-08 within 128 cycles.
 Requested convergence on MAX density matrix=1.00D-06.
 Requested convergence on             energy=1.00D-06.
 No special actions if energy rises.
 An orbital has undefined symmetry, so N**3 symmetry is turned off.

 Cycle   1  Pass 1  IDiag  1:
 E=-0.244625065432160E-01
 DIIS: error= 1.87D-03 at cycle   1 NSaved=   1.
 NSaved= 1 IEnMin= 1 EnMin=-0.244625065432160E-01 IErMin= 1 ErrMin= 1.87D-03
 ErrMax= 1.87D-03  0.00D+00 EMaxC= 1.00D-01 BMatC= 8.94D-05 BMatP= 8.94D-05
 IDIUse=3 WtCom= 9.81D-01 WtEn= 1.87D-02
 Coeff-Com:  0.100D+01
 Coeff-En:   0.100D+01
 Coeff:      0.100D+01
 GapD=    2.000 DampG=2.000 DampE=1.000 DampFc=2.0000 IDamp=-1.
 RMSDP=9.97D-04 MaxDP=3.82D-03              OVMax= 0.00D+00

 Cycle   2  Pass 1  IDiag  3:
 E=-0.247021537375431E-01 Delta-E=       -0.000239647194 Rises=F Damp=F
 DIIS: error= 6.31D-04 at cycle   2 NSaved=   2.
 NSaved= 2 IEnMin= 2 EnMin=-0.247021537375431E-01 IErMin= 2 ErrMin= 6.31D-04
 ErrMax= 6.31D-04  0.00D+00 EMaxC= 1.00D-01 BMatC= 9.13D-06 BMatP= 8.94D-05
 IDIUse=3 WtCom= 9.94D-01 WtEn= 6.31D-03
 Coeff-Com: -0.416D+00 0.142D+01
 Coeff-En:   0.000D+00 0.100D+01
 Coeff:     -0.413D+00 0.141D+01
 Gap=     0.604 Goal=   None    Shift=    0.000
 RMSDP=5.14D-04 MaxDP=1.78D-03 DE=-2.40D-04 OVMax= 4.32D-03

 Cycle   3  Pass 1  IDiag  3:
 E=-0.247360210168708E-01 Delta-E=       -0.000033867279 Rises=F Damp=F
 DIIS: error= 6.25D-05 at cycle   3 NSaved=   3.
 NSaved= 3 IEnMin= 3 EnMin=-0.247360210168708E-01 IErMin= 3 ErrMin= 6.25D-05
 ErrMax= 6.25D-05  0.00D+00 EMaxC= 1.00D-01 BMatC= 2.76D-07 BMatP= 9.13D-06
 IDIUse=1 WtCom= 1.00D+00 WtEn= 0.00D+00
 Coeff-Com:  0.210D+00-0.788D+00 0.158D+01
 Coeff:      0.210D+00-0.788D+00 0.158D+01
 Gap=     0.604 Goal=   None    Shift=    0.000
 RMSDP=1.23D-04 MaxDP=3.37D-04 DE=-3.39D-05 OVMax= 9.89D-04

 Cycle   4  Pass 1  IDiag  3:
 E=-0.247374583321118E-01 Delta-E=       -0.000001437315 Rises=F Damp=F
 DIIS: error= 1.71D-05 at cycle   4 NSaved=   4.
 NSaved= 4 IEnMin= 4 EnMin=-0.247374583321118E-01 IErMin= 4 ErrMin= 1.71D-05
 ErrMax= 1.71D-05  0.00D+00 EMaxC= 1.00D-01 BMatC= 1.20D-08 BMatP= 2.76D-07
 IDIUse=1 WtCom= 1.00D+00 WtEn= 0.00D+00
 Coeff-Com: -0.130D+00 0.491D+00-0.108D+01 0.172D+01
 Coeff:     -0.130D+00 0.491D+00-0.108D+01 0.172D+01
 Gap=     0.604 Goal=   None    Shift=    0.000
 RMSDP=2.72D-05 MaxDP=1.11D-04 DE=-1.44D-06 OVMax= 1.19D-04

 Cycle   5  Pass 1  IDiag  3:
 E=-0.247375197058020E-01 Delta-E=       -0.000000061374 Rises=F Damp=F
 DIIS: error= 1.87D-06 at cycle   5 NSaved=   5.
 NSaved= 5 IEnMin= 5 EnMin=-0.247375197058020E-01 IErMin= 5 ErrMin= 1.87D-06
 ErrMax= 1.87D-06  0.00D+00 EMaxC= 1.00D-01 BMatC= 1.59D-10 BMatP= 1.20D-08
 IDIUse=1 WtCom= 1.00D+00 WtEn= 0.00D+00
 Coeff-Com:  0.597D-01-0.227D+00 0.505D+00-0.859D+00 0.152D+01
 Coeff:      0.597D-01-0.227D+00 0.505D+00-0.859D+00 0.152D+01
 Gap=     0.604 Goal=   None    Shift=    0.000
 RMSDP=2.81D-06 MaxDP=1.20D-05 DE=-6.14D-08 OVMax= 1.22D-05

 Cycle   6  Pass 1  IDiag  3:
 E=-0.247375203917883E-01 Delta-E=       -0.000000000686 Rises=F Damp=F
 DIIS: error= 1.02D-07 at cycle   6 NSaved=   6.
 NSaved= 6 IEnMin= 6 EnMin=-0.247375203917883E-01 IErMin= 6 ErrMin= 1.02D-07
 ErrMax= 1.02D-07  0.00D+00 EMaxC= 1.00D-01 BMatC= 5.07D-13 BMatP= 1.59D-10
 IDIUse=1 WtCom= 1.00D+00 WtEn= 0.00D+00
 Coeff-Com: -0.608D-02 0.233D-01-0.525D-01 0.889D-01-0.164D+00 0.111D+01
 Coeff:     -0.608D-02 0.233D-01-0.525D-01 0.889D-01-0.164D+00 0.111D+01
 Gap=     0.604 Goal=   None    Shift=    0.000
 RMSDP=1.26D-07 MaxDP=5.51D-07 DE=-6.86D-10 OVMax= 5.85D-07

 Cycle   7  Pass 1  IDiag  3:
 E=-0.247375203936571E-01 Delta-E=       -0.000000000002 Rises=F Damp=F
 DIIS: error= 2.15D-08 at cycle   7 NSaved=   7.
 NSaved= 7 IEnMin= 7 EnMin=-0.247375203936571E-01 IErMin= 7 ErrMin= 2.15D-08
 ErrMax= 2.15D-08  0.00D+00 EMaxC= 1.00D-01 BMatC= 1.74D-14 BMatP= 5.07D-13
 IDIUse=1 WtCom= 1.00D+00 WtEn= 0.00D+00
 Coeff-Com:  0.214D-04-0.120D-03 0.510D-03-0.618D-03-0.690D-03-0.250D+00
 Coeff-Com:  0.125D+01
 Coeff:      0.214D-04-0.120D-03 0.510D-03-0.618D-03-0.690D-03-0.250D+00
 Coeff:      0.125D+01
 Gap=     0.604 Goal=   None    Shift=    0.000
 RMSDP=2.47D-08 MaxDP=7.45D-08 DE=-1.87D-12 OVMax= 1.26D-07

 Cycle   8  Pass 1  IDiag  3:
 E=-0.247375203937210E-01 Delta-E=       -0.000000000000 Rises=F Damp=F
 DIIS: error= 5.60D-10 at cycle   8 NSaved=   8.
 NSaved= 8 IEnMin= 8 EnMin=-0.247375203937210E-01 IErMin= 8 ErrMin= 5.60D-10
 ErrMax= 5.60D-10  0.00D+00 EMaxC= 1.00D-01 BMatC= 1.14D-17 BMatP= 1.74D-14
 IDIUse=1 WtCom= 1.00D+00 WtEn= 0.00D+00
 Coeff-Com: -0.336D-05 0.298D-04-0.176D-03 0.185D-03 0.480D-03 0.112D+00
 Coeff-Com: -0.565D+00 0.145D+01
 Coeff:     -0.336D-05 0.298D-04-0.176D-03 0.185D-03 0.480D-03 0.112D+00
 Coeff:     -0.565D+00 0.145D+01
 Gap=     0.604 Goal=   None    Shift=    0.000
 RMSDP=7.11D-10 MaxDP=2.77D-09 DE=-6.39D-14 OVMax= 4.01D-09

 Cycle   9  Pass 2  IDiag  1:
 SCF Done:  E(RPM6) = -0.247375203937E-01 A.U. after    9 cycles
            NFock=  8  Conv=0.71D-09     -V/T= 0.9987
 KE=-1.894252168412D+01 PE=-4.203739871064D+01 EE= 2.623453387464D+01
 Leave Link  502 at Fri Sep  6 16:45:47 2024, MaxMem=  1073741824 cpu:               0.2 elap:               0.0
 (Enter /Users/asuyarger/Applications/G16/g16/l701.exe)
 ... and contract with generalized density number  0.
 Compute integral first derivatives.
 Leave Link  701 at Fri Sep  6 16:45:47 2024, MaxMem=  1073741824 cpu:               0.2 elap:               0.0
 (Enter /Users/asuyarger/Applications/G16/g16/l702.exe)
 L702 exits ... SP integral derivatives will be done elsewhere.
 Leave Link  702 at Fri Sep  6 16:45:47 2024, MaxMem=  1073741824 cpu:               0.1 elap:               0.0
 (Enter /Users/asuyarger/Applications/G16/g16/l703.exe)
 Integral derivatives from FoFJK, PRISM(SPDF).
 Compute integral first derivatives, UseDBF=F ICtDFT=           0.
 Calling FoFJK, ICntrl=      2127 FMM=F ISym2X=1 I1Cent= 0 IOpClX= 0 NMat=1 NMatS=1 NMatT=0.
 FoFJK:  IHMeth=40 ICntrl=    2127 DoSepK=F KAlg= 0 I1Cent=           0 FoldK=F
 IRaf=         0 NMat=       1 IRICut=       1 DoRegI=T DoRafI=F ISym2E= 1 IDoP0=3 IntGTp=3.
 FoFCou: FMM=F IPFlag=           0 FMFlag=      100000 FMFlg1=         800
         NFxFlg=           0 DoJE=F BraDBF=F KetDBF=F FulRan=T
         wScrn=  0.000000 ICntrl=      2127 IOpCl=  0 I1Cent=           0 NGrid=           0
         NMat0=    1 NMatS0=      1 NMatT0=    0 NMatD0=    1 NMtDS0=    0 NMtDT0=    0
 Petite list used in FoFCou.
 Leave Link  703 at Fri Sep  6 16:45:47 2024, MaxMem=  1073741824 cpu:               0.2 elap:               0.0
 (Enter /Users/asuyarger/Applications/G16/g16/l716.exe)
 Dipole        =-6.66133815D-16 1.88737914D-15-1.33226763D-14
 ***** Axes restored to original set *****
 -------------------------------------------------------------------
 Center     Atomic                   Forces (Hartrees/Bohr)
 Number     Number              X              Y              Z
 -------------------------------------------------------------------
      1        6           0.005509249    0.007791051    0.013494613
      2        1           0.000622072   -0.002560870   -0.000462179
      3        1           0.000622477    0.000879908   -0.002448861
      4        1          -0.002621775   -0.000266679   -0.000462401
      5        6          -0.005509249   -0.007791051   -0.013494613
      6        1           0.002621775    0.000266679    0.000462401
      7        1          -0.000622072    0.002560870    0.000462179
      8        1          -0.000622477   -0.000879908    0.002448861
 -------------------------------------------------------------------
 Cartesian Forces:  Max     0.013494613 RMS     0.004955071
 Leave Link  716 at Fri Sep  6 16:45:47 2024, MaxMem=  1073741824 cpu:               0.1 elap:               0.0
 (Enter /Users/asuyarger/Applications/G16/g16/l103.exe)

 GradGradGradGradGradGradGradGradGradGradGradGradGradGradGradGradGradGrad
 Berny optimization.
 Using GEDIIS/GDIIS optimizer.
 FormGI is forming the generalized inverse of G from B-inverse, IUseBI=4.
 Internal  Forces:  Max     0.012395854 RMS     0.002659223
 Search for a local minimum.
 Step number   2 out of a maximum of   38
 All quantities printed in internal units (Hartrees-Bohrs-Radians)
 RMS Force = .26592D-02 SwitMx=.10000D-02 MixMth= 1
 Mixed Optimization -- RFO/linear search
 Update second derivatives using D2CorX and points    1    2
 DE= -2.32D-03 DEPred=-2.08D-03 R= 1.11D+00
 TightC=F SS=  1.41D+00  RLast= 1.20D-01 DXNew= 5.0454D-01 3.5894D-01
 Trust test= 1.11D+00 RLast= 1.20D-01 DXMaxT set to 3.59D-01
 ITU=  1  0
 Use linear search instead of GDIIS.
     Eigenvalues ---    0.00237   0.05485   0.05485   0.05485   0.05485
     Eigenvalues ---    0.13987   0.16000   0.16000   0.16000   0.16000
     Eigenvalues ---    0.16000   0.24681   0.37230   0.37230   0.37230
     Eigenvalues ---    0.37230   0.37230   0.42955
 RFO step:  Lambda=-7.98500095D-04 EMin= 2.36824109D-03
 Quartic linear search produced a step of  0.16886.
 Iteration  1 RMS(Cart)=  0.00784741 RMS(Int)=  0.00005666
 Iteration  2 RMS(Cart)=  0.00003641 RMS(Int)=  0.00004604
 Iteration  3 RMS(Cart)=  0.00000000 RMS(Int)=  0.00004604
 ITry= 1 IFail=0 DXMaxC= 1.98D-02 DCOld= 1.00D+10 DXMaxT= 3.59D-01 DXLimC= 3.00D+00 Rises=F
 ClnCor:  largest displacement from symmetrization is 5.48D-09 for atom     6.
 Variable       Old X    -DE/DX   Delta X   Delta X   Delta X     New X
                                 (Linear)    (Quad)   (Total)
    R1        2.05895   0.00263   0.00624   0.00925   0.01549   2.07445
    R2        2.05895   0.00263   0.00624   0.00925   0.01549   2.07445
    R3        2.05895   0.00263   0.00624   0.00925   0.01549   2.07445
    R4        2.92142  -0.01240   0.00190  -0.05032  -0.04842   2.87299
    R5        2.05895   0.00263   0.00624   0.00925   0.01549   2.07445
    R6        2.05895   0.00263   0.00624   0.00925   0.01549   2.07445
    R7        2.05895   0.00263   0.00624   0.00925   0.01549   2.07445
    A1        1.88802  -0.00049  -0.00382  -0.00425  -0.00814   1.87988
    A2        1.88802  -0.00049  -0.00382  -0.00425  -0.00814   1.87988
    A3        1.93274   0.00047   0.00373   0.00407   0.00773   1.94046
    A4        1.88802  -0.00049  -0.00382  -0.00425  -0.00814   1.87988
    A5        1.93274   0.00047   0.00373   0.00407   0.00773   1.94046
    A6        1.93274   0.00047   0.00373   0.00407   0.00773   1.94046
    A7        1.93274   0.00047   0.00373   0.00407   0.00773   1.94046
    A8        1.93274   0.00047   0.00373   0.00407   0.00773   1.94046
    A9        1.93274   0.00047   0.00373   0.00407   0.00773   1.94046
   A10        1.88802  -0.00049  -0.00382  -0.00425  -0.00814   1.87988
   A11        1.88802  -0.00049  -0.00382  -0.00425  -0.00814   1.87988
   A12        1.88802  -0.00049  -0.00382  -0.00425  -0.00814   1.87988
    D1        1.04720   0.00000  -0.00000   0.00000  -0.00000   1.04720
    D2        3.14159  -0.00000   0.00000   0.00000   0.00000   3.14159
    D3       -1.04720  -0.00000  -0.00000   0.00000   0.00000  -1.04720
    D4       -1.04720   0.00000   0.00000   0.00000   0.00000  -1.04720
    D5        1.04720  -0.00000   0.00000   0.00000   0.00000   1.04720
    D6        3.14159   0.00000   0.00000   0.00000   0.00000   3.14159
    D7        3.14159   0.00000   0.00000   0.00000  -0.00000   3.14159
    D8       -1.04720  -0.00000   0.00000   0.00000   0.00000  -1.04720
    D9        1.04720   0.00000   0.00000   0.00000  -0.00000   1.04720
         Item               Value     Threshold  Converged?
 Maximum Force            0.012396     0.000015     NO 
 RMS     Force            0.002659     0.000010     NO 
 Maximum Displacement     0.019769     0.000060     NO 
 RMS     Displacement     0.007830     0.000040     NO 
 Predicted change in Energy=-4.426661D-04
 Lowest energy point so far.  Saving SCF results.
 GradGradGradGradGradGradGradGradGradGradGradGradGradGradGradGradGradGrad

 Leave Link  103 at Fri Sep  6 16:45:47 2024, MaxMem=  1073741824 cpu:               0.1 elap:               0.0
 (Enter /Users/asuyarger/Applications/G16/g16/l202.exe)
                          Input orientation:                          
 ---------------------------------------------------------------------
 Center     Atomic      Atomic             Coordinates (Angstroms)
 Number     Number       Type             X           Y           Z
 ---------------------------------------------------------------------
      1          6           0       -0.078094    0.284927    0.008034
      2          1           0        0.272130   -0.755070   -0.020273
      3          1           0        0.272311    0.780291   -0.906780
      4          1           0       -1.175356    0.268655   -0.020372
      5          6           0        0.428688    1.001608    1.249371
      6          1           0        1.525949    1.017880    1.277776
      7          1           0        0.078463    2.041605    1.277677
      8          1           0        0.078283    0.506244    2.164185
 ---------------------------------------------------------------------
                    Distance matrix (angstroms):
                    1          2          3          4          5
     1  C    0.000000
     2  H    1.097749   0.000000
     3  H    1.097749   1.772915   0.000000
     4  H    1.097749   1.772915   1.772915   0.000000
     5  C    1.520321   2.173113   2.173113   2.173113   0.000000
     6  H    2.173113   2.529890   2.529890   3.089267   1.097749
     7  H    2.173113   3.089267   2.529890   2.529890   1.097749
     8  H    2.173113   2.529890   3.089267   2.529890   1.097749
                    6          7          8
     6  H    0.000000
     7  H    1.772915   0.000000
     8  H    1.772915   1.772915   0.000000
 Stoichiometry    C2H6
 Framework group  D3D[C3(C.C),3SGD(H2)]
 Deg. of freedom     3
 Full point group                 D3D     NOp  12
 RotChk:  IX=0 Diff= 1.18D-15
 Largest Abelian subgroup         C2H     NOp   4
 Largest concise Abelian subgroup C2H     NOp   4
                         Standard orientation:                         
 ---------------------------------------------------------------------
 Center     Atomic      Atomic             Coordinates (Angstroms)
 Number     Number       Type             X           Y           Z
 ---------------------------------------------------------------------
      1          6           0        0.000000   -0.000000    0.760161
      2          1           0       -0.000000    1.023593    1.156784
      3          1           0        0.886458   -0.511797    1.156784
      4          1           0       -0.886458   -0.511797    1.156784
      5          6           0       -0.000000    0.000000   -0.760161
      6          1           0        0.886458    0.511797   -1.156784
      7          1           0       -0.000000   -1.023593   -1.156784
      8          1           0       -0.886458    0.511797   -1.156784
 ---------------------------------------------------------------------
 Rotational constants (GHZ):          79.7675037          20.1123346          20.1123346
 Leave Link  202 at Fri Sep  6 16:45:47 2024, MaxMem=  1073741824 cpu:               0.0 elap:               0.0
 (Enter /Users/asuyarger/Applications/G16/g16/l301.exe)
 Standard basis: VSTO-6G (5D, 7F)
 Ernie: Thresh=  0.10000D-02 Tol=  0.10000D-05 Strict=F.
  NNHCO=     0 NNPyr=     0 NCTC=     0               EPep=         0.000000000
    EC=        21.437256806  ECS=         1.228172208   EG=         0.088242406
   EHC=         0.000192659  EAt=       -10.947068944  AtH=         1.042840032
 EPDDG=         0.000000000  ECC=        22.753864079 EAtT=        11.989908975
 There are     5 symmetry adapted cartesian basis functions of AG  symmetry.
 There are     2 symmetry adapted cartesian basis functions of BG  symmetry.
 There are     2 symmetry adapted cartesian basis functions of AU  symmetry.
 There are     5 symmetry adapted cartesian basis functions of BU  symmetry.
 There are     5 symmetry adapted basis functions of AG  symmetry.
 There are     2 symmetry adapted basis functions of BG  symmetry.
 There are     2 symmetry adapted basis functions of AU  symmetry.
 There are     5 symmetry adapted basis functions of BU  symmetry.
    14 basis functions,    84 primitive gaussians,    14 cartesian basis functions
     7 alpha electrons        7 beta electrons
       nuclear repulsion energy        34.7437730543 Hartrees.
 IExCor=    0 DFT=F Ex=HF Corr=None ExCW=0 ScaHFX=  1.000000
 ScaDFX=  1.000000  1.000000  1.000000  1.000000 ScalE2=  1.000000  1.000000
 IRadAn=      5 IRanWt=     -1 IRanGd=            0 ICorTp=0 IEmpDi=  4
 Integral buffers will be    131072 words long.
 Regular integral format.
 Two-electron integral symmetry is turned off.
 Leave Link  301 at Fri Sep  6 16:45:47 2024, MaxMem=  1073741824 cpu:               0.1 elap:               0.0
 (Enter /Users/asuyarger/Applications/G16/g16/l302.exe)
 Do NDO integrals.
 NPDir=0 NMtPBC=     1 NCelOv=     1 NCel=       1 NClECP=     1 NCelD=      1
         NCelK=      1 NCelE2=     1 NClLst=     1 CellRange=     0.0.
 One-electron integrals computed using PRISM.
 NBasis=    14 RedAO= T EigKep=  1.00D+00  NBF=     5     2     2     5
 NBsUse=    14 1.00D-06 EigRej= -1.00D+00 NBFU=     5     2     2     5
 Leave Link  302 at Fri Sep  6 16:45:47 2024, MaxMem=  1073741824 cpu:               0.3 elap:               0.1
 (Enter /Users/asuyarger/Applications/G16/g16/l303.exe)
 DipDrv:  MaxL=1.
 Leave Link  303 at Fri Sep  6 16:45:47 2024, MaxMem=  1073741824 cpu:               0.1 elap:               0.0
 (Enter /Users/asuyarger/Applications/G16/g16/l401.exe)
 Initial guess from the checkpoint file:  "C2H6_PM6_Opt_Freq_Full.chk"
 B after Tr=    -0.000000   -0.000000    0.000000
         Rot=    1.000000   -0.000000    0.000000    0.000000 Ang=   0.00 deg.
 Guess basis will be translated and rotated to current coordinates.
 JPrj=0 DoOrth=T DoCkMO=T.
 Initial guess orbital symmetries:
       Occupied  (A1G) (A2U) (EU) (EU) (A1G) (EG) (EG)
       Virtual   (A2U) (EU) (EU) (EG) (EG) (A2U) (A1G)
 The electronic state of the initial guess is 1-A1G.
 Leave Link  401 at Fri Sep  6 16:45:47 2024, MaxMem=  1073741824 cpu:               0.3 elap:               0.0
 (Enter /Users/asuyarger/Applications/G16/g16/l502.exe)
 Keep J ints in memory in canonical form, NReq=859572.
 FoFCou: FMM=F IPFlag=           0 FMFlag=           0 FMFlg1=           0
         NFxFlg=           0 DoJE=F BraDBF=F KetDBF=F FulRan=T
         wScrn=  0.000000 ICntrl=       600 IOpCl=  2 I1Cent=           0 NGrid=           0
         NMat0=    1 NMatS0=     26 NMatT0=    0 NMatD0=    1 NMtDS0=    0 NMtDT0=    0
 Symmetry not used in FoFCou.
 Two-electron integral symmetry not used.
 Closed shell SCF:
 Using DIIS extrapolation, IDIIS=  1040.
 Overlap will be assumed to be unity.
 NGot=  1073741824 LenX=  1073681017 LenY=  1073680135
 Requested convergence on RMS density matrix=1.00D-08 within 128 cycles.
 Requested convergence on MAX density matrix=1.00D-06.
 Requested convergence on             energy=1.00D-06.
 No special actions if energy rises.
 An orbital has undefined symmetry, so N**3 symmetry is turned off.

 Cycle   1  Pass 1  IDiag  1:
 E=-0.249232580008609E-01
 DIIS: error= 2.01D-03 at cycle   1 NSaved=   1.
 NSaved= 1 IEnMin= 1 EnMin=-0.249232580008609E-01 IErMin= 1 ErrMin= 2.01D-03
 ErrMax= 2.01D-03  0.00D+00 EMaxC= 1.00D-01 BMatC= 7.15D-05 BMatP= 7.15D-05
 IDIUse=3 WtCom= 9.80D-01 WtEn= 2.01D-02
 Coeff-Com:  0.100D+01
 Coeff-En:   0.100D+01
 Coeff:      0.100D+01
 GapD=    2.000 DampG=2.000 DampE=1.000 DampFc=2.0000 IDamp=-1.
 RMSDP=9.39D-04 MaxDP=3.79D-03              OVMax= 0.00D+00

 Cycle   2  Pass 1  IDiag  3:
 E=-0.251292167159463E-01 Delta-E=       -0.000205958715 Rises=F Damp=F
 DIIS: error= 6.68D-04 at cycle   2 NSaved=   2.
 NSaved= 2 IEnMin= 2 EnMin=-0.251292167159463E-01 IErMin= 2 ErrMin= 6.68D-04
 ErrMax= 6.68D-04  0.00D+00 EMaxC= 1.00D-01 BMatC= 7.65D-06 BMatP= 7.15D-05
 IDIUse=3 WtCom= 9.93D-01 WtEn= 6.68D-03
 Coeff-Com: -0.479D+00 0.148D+01
 Coeff-En:   0.000D+00 0.100D+01
 Coeff:     -0.476D+00 0.148D+01
 Gap=     0.606 Goal=   None    Shift=    0.000
 RMSDP=4.63D-04 MaxDP=1.92D-03 DE=-2.06D-04 OVMax= 3.23D-03

 Cycle   3  Pass 1  IDiag  3:
 E=-0.251546940774929E-01 Delta-E=       -0.000025477362 Rises=F Damp=F
 DIIS: error= 1.88D-05 at cycle   3 NSaved=   3.
 NSaved= 3 IEnMin= 3 EnMin=-0.251546940774929E-01 IErMin= 3 ErrMin= 1.88D-05
 ErrMax= 1.88D-05  0.00D+00 EMaxC= 1.00D-01 BMatC= 2.13D-08 BMatP= 7.65D-06
 IDIUse=1 WtCom= 1.00D+00 WtEn= 0.00D+00
 Coeff-Com:  0.260D+00-0.812D+00 0.155D+01
 Coeff:      0.260D+00-0.812D+00 0.155D+01
 Gap=     0.606 Goal=   None    Shift=    0.000
 RMSDP=2.99D-05 MaxDP=9.14D-05 DE=-2.55D-05 OVMax= 2.64D-04

 Cycle   4  Pass 1  IDiag  3:
 E=-0.251547813525548E-01 Delta-E=       -0.000000087275 Rises=F Damp=F
 DIIS: error= 1.74D-06 at cycle   4 NSaved=   4.
 NSaved= 4 IEnMin= 4 EnMin=-0.251547813525548E-01 IErMin= 4 ErrMin= 1.74D-06
 ErrMax= 1.74D-06  0.00D+00 EMaxC= 1.00D-01 BMatC= 6.78D-11 BMatP= 2.13D-08
 IDIUse=1 WtCom= 1.00D+00 WtEn= 0.00D+00
 Coeff-Com: -0.887D-01 0.277D+00-0.544D+00 0.135D+01
 Coeff:     -0.887D-01 0.277D+00-0.544D+00 0.135D+01
 Gap=     0.606 Goal=   None    Shift=    0.000
 RMSDP=1.36D-06 MaxDP=5.06D-06 DE=-8.73D-08 OVMax= 1.00D-05

 Cycle   5  Pass 1  IDiag  3:
 E=-0.251547815971449E-01 Delta-E=       -0.000000000245 Rises=F Damp=F
 DIIS: error= 3.13D-07 at cycle   5 NSaved=   5.
 NSaved= 5 IEnMin= 5 EnMin=-0.251547815971449E-01 IErMin= 5 ErrMin= 3.13D-07
 ErrMax= 3.13D-07  0.00D+00 EMaxC= 1.00D-01 BMatC= 3.21D-12 BMatP= 6.78D-11
 IDIUse=1 WtCom= 1.00D+00 WtEn= 0.00D+00
 Coeff-Com:  0.483D-01-0.151D+00 0.296D+00-0.814D+00 0.162D+01
 Coeff:      0.483D-01-0.151D+00 0.296D+00-0.814D+00 0.162D+01
 Gap=     0.606 Goal=   None    Shift=    0.000
 RMSDP=4.16D-07 MaxDP=1.75D-06 DE=-2.45D-10 OVMax= 1.74D-06

 Cycle   6  Pass 1  IDiag  3:
 E=-0.251547816146100E-01 Delta-E=       -0.000000000017 Rises=F Damp=F
 DIIS: error= 6.45D-08 at cycle   6 NSaved=   6.
 NSaved= 6 IEnMin= 6 EnMin=-0.251547816146100E-01 IErMin= 6 ErrMin= 6.45D-08
 ErrMax= 6.45D-08  0.00D+00 EMaxC= 1.00D-01 BMatC= 1.37D-13 BMatP= 3.21D-12
 IDIUse=1 WtCom= 1.00D+00 WtEn= 0.00D+00
 Coeff-Com: -0.105D-01 0.328D-01-0.640D-01 0.171D+00-0.528D+00 0.140D+01
 Coeff:     -0.105D-01 0.328D-01-0.640D-01 0.171D+00-0.528D+00 0.140D+01
 Gap=     0.606 Goal=   None    Shift=    0.000
 RMSDP=1.06D-07 MaxDP=4.51D-07 DE=-1.75D-11 OVMax= 5.17D-07

 Cycle   7  Pass 1  IDiag  3:
 E=-0.251547816154201E-01 Delta-E=       -0.000000000001 Rises=F Damp=F
 DIIS: error= 6.05D-09 at cycle   7 NSaved=   7.
 NSaved= 7 IEnMin= 7 EnMin=-0.251547816154201E-01 IErMin= 7 ErrMin= 6.05D-09
 ErrMax= 6.05D-09  0.00D+00 EMaxC= 1.00D-01 BMatC= 1.64D-15 BMatP= 1.37D-13
 IDIUse=1 WtCom= 1.00D+00 WtEn= 0.00D+00
 Coeff-Com:  0.589D-03-0.182D-02 0.348D-02-0.735D-02 0.661D-01-0.312D+00
 Coeff-Com:  0.125D+01
 Coeff:      0.589D-03-0.182D-02 0.348D-02-0.735D-02 0.661D-01-0.312D+00
 Coeff:      0.125D+01
 Gap=     0.606 Goal=   None    Shift=    0.000
 RMSDP=7.53D-09 MaxDP=2.42D-08 DE=-8.10D-13 OVMax= 3.44D-08

 Cycle   8  Pass 2  IDiag  1:
 SCF Done:  E(RPM6) = -0.251547816154E-01 A.U. after    8 cycles
            NFock=  7  Conv=0.75D-08     -V/T= 0.9987
 KE=-1.893402881971D+01 PE=-4.211356179844D+01 EE= 2.627866278227D+01
 Leave Link  502 at Fri Sep  6 16:45:47 2024, MaxMem=  1073741824 cpu:               0.2 elap:               0.0
 (Enter /Users/asuyarger/Applications/G16/g16/l701.exe)
 ... and contract with generalized density number  0.
 Compute integral first derivatives.
 Leave Link  701 at Fri Sep  6 16:45:47 2024, MaxMem=  1073741824 cpu:               0.2 elap:               0.0
 (Enter /Users/asuyarger/Applications/G16/g16/l702.exe)
 L702 exits ... SP integral derivatives will be done elsewhere.
 Leave Link  702 at Fri Sep  6 16:45:47 2024, MaxMem=  1073741824 cpu:               0.1 elap:               0.0
 (Enter /Users/asuyarger/Applications/G16/g16/l703.exe)
 Integral derivatives from FoFJK, PRISM(SPDF).
 Compute integral first derivatives, UseDBF=F ICtDFT=           0.
 Calling FoFJK, ICntrl=      2127 FMM=F ISym2X=1 I1Cent= 0 IOpClX= 0 NMat=1 NMatS=1 NMatT=0.
 FoFJK:  IHMeth=40 ICntrl=    2127 DoSepK=F KAlg= 0 I1Cent=           0 FoldK=F
 IRaf=         0 NMat=       1 IRICut=       1 DoRegI=T DoRafI=F ISym2E= 1 IDoP0=3 IntGTp=3.
 FoFCou: FMM=F IPFlag=           0 FMFlag=      100000 FMFlg1=         800
         NFxFlg=           0 DoJE=F BraDBF=F KetDBF=F FulRan=T
         wScrn=  0.000000 ICntrl=      2127 IOpCl=  0 I1Cent=           0 NGrid=           0
         NMat0=    1 NMatS0=      1 NMatT0=    0 NMatD0=    1 NMtDS0=    0 NMtDT0=    0
 Petite list used in FoFCou.
 Leave Link  703 at Fri Sep  6 16:45:47 2024, MaxMem=  1073741824 cpu:               0.2 elap:               0.0
 (Enter /Users/asuyarger/Applications/G16/g16/l716.exe)
 Dipole        =-6.66133815D-16 4.66293670D-15-8.43769499D-15
 ***** Axes restored to original set *****
 -------------------------------------------------------------------
 Center     Atomic                   Forces (Hartrees/Bohr)
 Number     Number              X              Y              Z
 -------------------------------------------------------------------
      1        6          -0.000082205   -0.000116252   -0.000201356
      2        1          -0.000562359    0.000649689   -0.000543433
      3        1          -0.000562529   -0.000795353    0.000290925
      4        1           0.000799978   -0.000313815   -0.000543340
      5        6           0.000082205    0.000116252    0.000201356
      6        1          -0.000799978    0.000313815    0.000543340
      7        1           0.000562359   -0.000649689    0.000543433
      8        1           0.000562529    0.000795353   -0.000290925
 -------------------------------------------------------------------
 Cartesian Forces:  Max     0.000799978 RMS     0.000513307
 Leave Link  716 at Fri Sep  6 16:45:47 2024, MaxMem=  1073741824 cpu:               0.1 elap:               0.0
 (Enter /Users/asuyarger/Applications/G16/g16/l103.exe)

 GradGradGradGradGradGradGradGradGradGradGradGradGradGradGradGradGradGrad
 Berny optimization.
 Using GEDIIS/GDIIS optimizer.
 FormGI is forming the generalized inverse of G from B-inverse, IUseBI=4.
 Internal  Forces:  Max     0.001221321 RMS     0.000606478
 Search for a local minimum.
 Step number   3 out of a maximum of   38
 All quantities printed in internal units (Hartrees-Bohrs-Radians)
 RMS Force = .60648D-03 SwitMx=.10000D-02 MixMth= 2
 Mixed Optimization -- En-DIIS/RFO-DIIS
 Update second derivatives using D2CorX and points    1    2    3
 DE= -4.17D-04 DEPred=-4.43D-04 R= 9.43D-01
 TightC=F SS=  1.41D+00  RLast= 6.74D-02 DXNew= 6.0366D-01 2.0216D-01
 Trust test= 9.43D-01 RLast= 6.74D-02 DXMaxT set to 3.59D-01
 ITU=  1  1  0
 Use linear search instead of GDIIS.
     Eigenvalues ---    0.00237   0.05403   0.05403   0.05403   0.05403
     Eigenvalues ---    0.11354   0.16000   0.16000   0.16000   0.16000
     Eigenvalues ---    0.16000   0.31481   0.37230   0.37230   0.37230
     Eigenvalues ---    0.37230   0.37230   0.43087
 RFO step:  Lambda=-3.66625170D-05 EMin= 2.36824109D-03
 Quartic linear search produced a step of -0.06954.
 Iteration  1 RMS(Cart)=  0.00412038 RMS(Int)=  0.00000941
 Iteration  2 RMS(Cart)=  0.00000871 RMS(Int)=  0.00000328
 Iteration  3 RMS(Cart)=  0.00000000 RMS(Int)=  0.00000328
 ITry= 1 IFail=0 DXMaxC= 7.56D-03 DCOld= 1.00D+10 DXMaxT= 3.59D-01 DXLimC= 3.00D+00 Rises=F
 ClnCor:  largest displacement from symmetrization is 7.45D-10 for atom     4.
 Variable       Old X    -DE/DX   Delta X   Delta X   Delta X     New X
                                 (Linear)    (Quad)   (Total)
    R1        2.07445  -0.00078  -0.00108  -0.00061  -0.00169   2.07276
    R2        2.07445  -0.00078  -0.00108  -0.00061  -0.00169   2.07276
    R3        2.07445  -0.00078  -0.00108  -0.00061  -0.00169   2.07276
    R4        2.87299   0.00122   0.00337  -0.00162   0.00175   2.87474
    R5        2.07445  -0.00078  -0.00108  -0.00061  -0.00169   2.07276
    R6        2.07445  -0.00078  -0.00108  -0.00061  -0.00169   2.07276
    R7        2.07445  -0.00078  -0.00108  -0.00061  -0.00169   2.07276
    A1        1.87988  -0.00067   0.00057  -0.00465  -0.00409   1.87579
    A2        1.87988  -0.00067   0.00057  -0.00465  -0.00409   1.87579
    A3        1.94046   0.00064  -0.00054   0.00438   0.00384   1.94430
    A4        1.87988  -0.00067   0.00057  -0.00465  -0.00409   1.87579
    A5        1.94046   0.00064  -0.00054   0.00438   0.00384   1.94430
    A6        1.94046   0.00064  -0.00054   0.00438   0.00384   1.94430
    A7        1.94046   0.00064  -0.00054   0.00438   0.00384   1.94430
    A8        1.94046   0.00064  -0.00054   0.00438   0.00384   1.94430
    A9        1.94046   0.00064  -0.00054   0.00438   0.00384   1.94430
   A10        1.87988  -0.00067   0.00057  -0.00465  -0.00409   1.87579
   A11        1.87988  -0.00067   0.00057  -0.00465  -0.00409   1.87579
   A12        1.87988  -0.00067   0.00057  -0.00465  -0.00409   1.87579
    D1        1.04720  -0.00000  -0.00000   0.00000   0.00000   1.04720
    D2        3.14159  -0.00000   0.00000   0.00000   0.00000  -3.14159
    D3       -1.04720  -0.00000  -0.00000   0.00000   0.00000  -1.04720
    D4       -1.04720   0.00000   0.00000   0.00000   0.00000  -1.04720
    D5        1.04720   0.00000   0.00000   0.00000   0.00000   1.04720
    D6        3.14159   0.00000  -0.00000   0.00000   0.00000   3.14159
    D7        3.14159   0.00000   0.00000   0.00000   0.00000   3.14159
    D8       -1.04720  -0.00000   0.00000   0.00000   0.00000  -1.04720
    D9        1.04720   0.00000   0.00000   0.00000   0.00000   1.04720
         Item               Value     Threshold  Converged?
 Maximum Force            0.001221     0.000015     NO 
 RMS     Force            0.000606     0.000010     NO 
 Maximum Displacement     0.007559     0.000060     NO 
 RMS     Displacement     0.004119     0.000040     NO 
 Predicted change in Energy=-2.057481D-05
 Lowest energy point so far.  Saving SCF results.
 GradGradGradGradGradGradGradGradGradGradGradGradGradGradGradGradGradGrad

 Leave Link  103 at Fri Sep  6 16:45:47 2024, MaxMem=  1073741824 cpu:               0.1 elap:               0.0
 (Enter /Users/asuyarger/Applications/G16/g16/l202.exe)
                          Input orientation:                          
 ---------------------------------------------------------------------
[...]
     13 -0.927646D-02 -0.927646D-02  0.130180D-01  0.226955D-01  0.192264D-02
     14 -0.305284D-03 -0.305284D-03  0.192264D-02  0.226955D-01  0.130180D-01
     15  0.192264D-02 -0.305284D-03 -0.305284D-03  0.226955D-01 -0.927646D-02
     16 -0.305284D-03  0.192264D-02 -0.305284D-03  0.226955D-01 -0.927646D-02
     17 -0.694700D-03 -0.148092D-04 -0.694700D-03 -0.242893D-01  0.249935D-02
     18 -0.148092D-04 -0.694700D-03 -0.694700D-03 -0.242893D-01  0.249935D-02
     19 -0.694700D-03 -0.694700D-03 -0.148092D-04 -0.242893D-01  0.924917D-03
     20 -0.217187D-03  0.594236D-02 -0.572517D-02  0.000000D+00 -0.217187D-03
     21  0.000000D+00  0.550799D-02 -0.550799D-02  0.000000D+00  0.550799D-02
     22  0.217187D-03  0.572517D-02 -0.594236D-02  0.000000D+00 -0.594236D-02
     23 -0.594236D-02  0.217187D-03  0.572517D-02  0.000000D+00  0.217187D-03
     24 -0.572517D-02 -0.217187D-03  0.594236D-02  0.000000D+00  0.594236D-02
     25 -0.550799D-02  0.000000D+00  0.550799D-02  0.000000D+00 -0.550799D-02
     26  0.550799D-02 -0.550799D-02  0.000000D+00  0.000000D+00  0.000000D+00
     27  0.572517D-02 -0.594236D-02  0.217187D-03  0.000000D+00  0.572517D-02
     28  0.594236D-02 -0.572517D-02 -0.217187D-03  0.000000D+00 -0.572517D-02
                6             7             8             9            10 
      6  0.266693D+00
      7  0.118022D-01  0.266693D+00
      8 -0.694700D-03 -0.694700D-03  0.418086D-01
      9 -0.694700D-03 -0.148092D-04  0.114973D-01  0.418086D-01
     10  0.192264D-02 -0.305284D-03 -0.338332D-01 -0.338332D-01  0.907189D-01
     11 -0.148092D-04 -0.694700D-03  0.114973D-01  0.114973D-01  0.711531D-02
     12 -0.305284D-03  0.192264D-02 -0.338332D-01  0.711531D-02 -0.170705D-01
     13 -0.305284D-03 -0.305284D-03  0.711531D-02 -0.338332D-01 -0.170705D-01
     14 -0.927646D-02 -0.927646D-02  0.103696D-02 -0.234916D-02 -0.124033D-02
     15  0.130180D-01 -0.927646D-02 -0.234916D-02 -0.234916D-02  0.590177D-02
     16 -0.927646D-02  0.130180D-01 -0.234916D-02  0.103696D-02 -0.124033D-02
     17  0.249935D-02  0.924917D-03  0.849219D-03  0.222003D-02 -0.234916D-02
     18  0.924917D-03  0.249935D-02  0.849219D-03  0.849219D-03  0.103696D-02
     19  0.249935D-02  0.249935D-02  0.222003D-02  0.849219D-03 -0.234916D-02
     20 -0.572517D-02  0.594236D-02  0.356086D-02 -0.337384D-02 -0.184715D-03
     21  0.000000D+00 -0.550799D-02  0.374788D-02 -0.374788D-02  0.000000D+00
     22  0.572517D-02  0.217187D-03  0.337384D-02 -0.356086D-02  0.184715D-03
     23 -0.594236D-02  0.572517D-02 -0.356086D-02  0.187020D-03 -0.727771D-02
     24 -0.217187D-03 -0.572517D-02 -0.337384D-02 -0.187020D-03 -0.709300D-02
     25  0.550799D-02  0.000000D+00 -0.374788D-02  0.000000D+00 -0.690828D-02
     26 -0.550799D-02  0.550799D-02  0.000000D+00  0.374788D-02  0.690828D-02
     27  0.217187D-03 -0.594236D-02  0.187020D-03  0.337384D-02  0.709300D-02
     28  0.594236D-02 -0.217187D-03 -0.187020D-03  0.356086D-02  0.727771D-02
               11            12            13            14            15 
     11  0.418086D-01
     12 -0.338332D-01  0.907189D-01
     13 -0.338332D-01 -0.170705D-01  0.907189D-01
     14 -0.234916D-02 -0.124033D-02  0.590177D-02  0.907189D-01
     15  0.103696D-02 -0.124033D-02 -0.124033D-02 -0.170705D-01  0.907189D-01
     16 -0.234916D-02  0.590177D-02 -0.124033D-02 -0.170705D-01 -0.170705D-01
     17  0.849219D-03  0.103696D-02 -0.234916D-02 -0.338332D-01 -0.338332D-01
     18  0.222003D-02 -0.234916D-02 -0.234916D-02 -0.338332D-01  0.711531D-02
     19  0.849219D-03 -0.234916D-02  0.103696D-02  0.711531D-02 -0.338332D-01
     20 -0.187020D-03  0.727771D-02 -0.709300D-02 -0.184715D-03 -0.709300D-02
     21  0.000000D+00  0.690828D-02 -0.690828D-02  0.690828D-02  0.000000D+00
     22  0.187020D-03  0.709300D-02 -0.727771D-02 -0.727771D-02  0.709300D-02
     23  0.337384D-02  0.184715D-03  0.709300D-02  0.184715D-03 -0.727771D-02
     24  0.356086D-02 -0.184715D-03  0.727771D-02  0.727771D-02 -0.184715D-03
     25  0.374788D-02  0.000000D+00  0.690828D-02 -0.690828D-02  0.690828D-02
     26 -0.374788D-02 -0.690828D-02  0.000000D+00  0.000000D+00 -0.690828D-02
     27 -0.356086D-02 -0.727771D-02  0.184715D-03  0.709300D-02  0.184715D-03
     28 -0.337384D-02 -0.709300D-02 -0.184715D-03 -0.709300D-02  0.727771D-02
               16            17            18            19            20 
     16  0.907189D-01
     17  0.711531D-02  0.418086D-01
     18 -0.338332D-01  0.114973D-01  0.418086D-01
     19 -0.338332D-01  0.114973D-01  0.114973D-01  0.418086D-01
     20  0.727771D-02 -0.337384D-02  0.356086D-02 -0.187020D-03  0.124856D-01
     21 -0.690828D-02  0.374788D-02  0.000000D+00 -0.374788D-02  0.324153D-02
     22  0.184715D-03  0.187020D-03 -0.356086D-02  0.337384D-02  0.312938D-02
     23  0.709300D-02 -0.356086D-02  0.337384D-02  0.187020D-03  0.312938D-02
     24 -0.709300D-02  0.356086D-02 -0.187020D-03 -0.337384D-02 -0.611465D-02
     25  0.000000D+00  0.000000D+00 -0.374788D-02  0.374788D-02 -0.622680D-02
     26  0.690828D-02 -0.374788D-02  0.374788D-02  0.000000D+00  0.324153D-02
     27 -0.727771D-02  0.337384D-02  0.187020D-03 -0.356086D-02 -0.600250D-02
     28 -0.184715D-03 -0.187020D-03 -0.337384D-02  0.356086D-02 -0.611465D-02
               21            22            23            24            25 
     21  0.127099D-01
     22  0.324153D-02  0.124856D-01
     23 -0.622680D-02 -0.611465D-02  0.124856D-01
     24  0.324153D-02 -0.600250D-02  0.312938D-02  0.124856D-01
     25 -0.622680D-02  0.324153D-02  0.324153D-02  0.324153D-02  0.127099D-01
     26 -0.622680D-02 -0.622680D-02  0.324153D-02 -0.622680D-02 -0.622680D-02
     27  0.324153D-02 -0.611465D-02 -0.611465D-02  0.312938D-02 -0.622680D-02
     28 -0.622680D-02  0.312938D-02 -0.600250D-02 -0.611465D-02  0.324153D-02
               26            27            28 
     26  0.127099D-01
     27  0.324153D-02  0.124856D-01
     28  0.324153D-02  0.312938D-02  0.124856D-01
 Leave Link  716 at Fri Sep  6 16:45:50 2024, MaxMem=  1073741824 cpu:               0.2 elap:               0.0
 (Enter /Users/asuyarger/Applications/G16/g16/l103.exe)

 GradGradGradGradGradGradGradGradGradGradGradGradGradGradGradGradGradGrad
 Berny optimization.
 Red2BG is reusing G-inverse.
 Internal  Forces:  Max     0.000001314 RMS     0.000000271
 Search for a local minimum.
 Step number   1 out of a maximum of    2
 All quantities printed in internal units (Hartrees-Bohrs-Radians)
 Second derivative matrix not updated -- analytic derivatives used.
 ITU=  0
     Eigenvalues ---    0.00077   0.03637   0.03637   0.03757   0.03757
     Eigenvalues ---    0.10296   0.11347   0.11626   0.11626   0.13168
     Eigenvalues ---    0.13168   0.25907   0.25907   0.26118   0.26118
     Eigenvalues ---    0.27567   0.28933   0.43162
 Angle between quadratic step and forces=  19.19 degrees.
 Linear search not attempted -- first point.
 Iteration  1 RMS(Cart)=  0.00000138 RMS(Int)=  0.00000000
 Iteration  2 RMS(Cart)=  0.00000000 RMS(Int)=  0.00000000
 ITry= 1 IFail=0 DXMaxC= 2.48D-06 DCOld= 1.00D+10 DXMaxT= 3.00D-01 DXLimC= 3.00D+00 Rises=F
 ClnCor:  largest displacement from symmetrization is 6.33D-09 for atom     3.
 Variable       Old X    -DE/DX   Delta X   Delta X   Delta X     New X
                                 (Linear)    (Quad)   (Total)
    R1        2.07187   0.00000   0.00000   0.00000   0.00000   2.07187
    R2        2.07187   0.00000   0.00000   0.00000   0.00000   2.07187
    R3        2.07187   0.00000   0.00000   0.00000   0.00000   2.07187
    R4        2.87345  -0.00000   0.00000  -0.00000  -0.00000   2.87345
    R5        2.07187   0.00000   0.00000   0.00000   0.00000   2.07187
    R6        2.07187   0.00000   0.00000   0.00000   0.00000   2.07187
    R7        2.07187   0.00000   0.00000   0.00000   0.00000   2.07187
    A1        1.87484   0.00000   0.00000   0.00000   0.00000   1.87484
    A2        1.87484   0.00000   0.00000   0.00000   0.00000   1.87484
    A3        1.94519  -0.00000   0.00000  -0.00000  -0.00000   1.94519
    A4        1.87484   0.00000   0.00000   0.00000   0.00000   1.87484
    A5        1.94519  -0.00000   0.00000  -0.00000  -0.00000   1.94519
    A6        1.94519  -0.00000   0.00000  -0.00000  -0.00000   1.94519
    A7        1.94519  -0.00000   0.00000  -0.00000  -0.00000   1.94519
    A8        1.94519  -0.00000   0.00000  -0.00000  -0.00000   1.94519
    A9        1.94519  -0.00000   0.00000  -0.00000  -0.00000   1.94519
   A10        1.87484   0.00000   0.00000   0.00000   0.00000   1.87484
   A11        1.87484   0.00000   0.00000   0.00000   0.00000   1.87484
   A12        1.87484   0.00000   0.00000   0.00000   0.00000   1.87484
    D1        1.04720  -0.00000   0.00000   0.00000   0.00000   1.04720
    D2        3.14159  -0.00000   0.00000   0.00000   0.00000   3.14159
    D3       -1.04720  -0.00000   0.00000   0.00000  -0.00000  -1.04720
    D4       -1.04720   0.00000   0.00000   0.00000   0.00000  -1.04720
    D5        1.04720   0.00000   0.00000   0.00000  -0.00000   1.04720
    D6       -3.14159   0.00000   0.00000   0.00000   0.00000  -3.14159
    D7        3.14159   0.00000   0.00000   0.00000   0.00000   3.14159
    D8       -1.04720   0.00000   0.00000   0.00000  -0.00000  -1.04720
    D9        1.04720   0.00000   0.00000   0.00000  -0.00000   1.04720
         Item               Value     Threshold  Converged?
 Maximum Force            0.000001     0.000015     YES
 RMS     Force            0.000000     0.000010     YES
 Maximum Displacement     0.000002     0.000060     YES
 RMS     Displacement     0.000001     0.000040     YES
 Predicted change in Energy=-2.688546D-12
 Optimization completed.
    -- Stationary point found.
                           ----------------------------
                           !   Optimized Parameters   !
                           ! (Angstroms and Degrees)  !
 --------------------------                            --------------------------
 ! Name  Definition              Value          Derivative Info.                !
 --------------------------------------------------------------------------------
 ! R1    R(1,2)                  1.0964         -DE/DX =    0.0                 !
 ! R2    R(1,3)                  1.0964         -DE/DX =    0.0                 !
 ! R3    R(1,4)                  1.0964         -DE/DX =    0.0                 !
 ! R4    R(1,5)                  1.5206         -DE/DX =    0.0                 !
 ! R5    R(5,6)                  1.0964         -DE/DX =    0.0                 !
 ! R6    R(5,7)                  1.0964         -DE/DX =    0.0                 !
 ! R7    R(5,8)                  1.0964         -DE/DX =    0.0                 !
 ! A1    A(2,1,3)              107.4205         -DE/DX =    0.0                 !
 ! A2    A(2,1,4)              107.4205         -DE/DX =    0.0                 !
 ! A3    A(2,1,5)              111.4514         -DE/DX =    0.0                 !
 ! A4    A(3,1,4)              107.4205         -DE/DX =    0.0                 !
 ! A5    A(3,1,5)              111.4514         -DE/DX =    0.0                 !
 ! A6    A(4,1,5)              111.4514         -DE/DX =    0.0                 !
 ! A7    A(1,5,6)              111.4514         -DE/DX =    0.0                 !
 ! A8    A(1,5,7)              111.4514         -DE/DX =    0.0                 !
 ! A9    A(1,5,8)              111.4514         -DE/DX =    0.0                 !
 ! A10   A(6,5,7)              107.4205         -DE/DX =    0.0                 !
 ! A11   A(6,5,8)              107.4205         -DE/DX =    0.0                 !
 ! A12   A(7,5,8)              107.4205         -DE/DX =    0.0                 !
 ! D1    D(2,1,5,6)             60.0            -DE/DX =    0.0                 !
 ! D2    D(2,1,5,7)            180.0            -DE/DX =    0.0                 !
 ! D3    D(2,1,5,8)            -60.0            -DE/DX =    0.0                 !
 ! D4    D(3,1,5,6)            -60.0            -DE/DX =    0.0                 !
 ! D5    D(3,1,5,7)             60.0            -DE/DX =    0.0                 !
 ! D6    D(3,1,5,8)           -180.0            -DE/DX =    0.0                 !
 ! D7    D(4,1,5,6)            180.0            -DE/DX =    0.0                 !
 ! D8    D(4,1,5,7)            -60.0            -DE/DX =    0.0                 !
 ! D9    D(4,1,5,8)             60.0            -DE/DX =    0.0                 !
 --------------------------------------------------------------------------------
 GradGradGradGradGradGradGradGradGradGradGradGradGradGradGradGradGradGrad

 Leave Link  103 at Fri Sep  6 16:45:50 2024, MaxMem=  1073741824 cpu:               0.1 elap:               0.0
 (Enter /Users/asuyarger/Applications/G16/g16/l9999.exe)
 Dipole is zero, so no output in dipole orientation.

 ----------------------------------------------------------------------

 Electric dipole moment (input orientation):
 (Debye = 10**-18 statcoulomb cm , SI units = C m)
                  (au)            (Debye)         (10**-30 SI)
   Tot        0.000000D+00      0.000000D+00      0.000000D+00
   x          0.000000D+00      0.000000D+00      0.000000D+00
   y          0.000000D+00      0.000000D+00      0.000000D+00
   z          0.000000D+00      0.000000D+00      0.000000D+00

 Dipole polarizability, Alpha (input orientation).
 (esu units = cm**3 , SI units = C**2 m**2 J**-1)
 Alpha(0;0):
               (au)            (10**-24 esu)      (10**-40 SI)
   iso        0.133409D+02      0.197691D+01      0.219961D+01
   aniso      0.657330D+00      0.974062D-01      0.108379D+00
   xx         0.131948D+02      0.195527D+01      0.217553D+01
   yx         0.103290D+00      0.153060D-01      0.170303D-01
   yy         0.132678D+02      0.196609D+01      0.218757D+01
   zx         0.178906D+00      0.265111D-01      0.294976D-01
   zy         0.253004D+00      0.374913D-01      0.417148D-01
   zz         0.135600D+02      0.200938D+01      0.223574D+01

 ----------------------------------------------------------------------
 1\1\GINC-JEFFSMACSTUDIO\Freq\RPM6\ZDO\C2H6\ROOT\06-Sep-2024\0\\#P Geom
 =AllCheck Guess=TCheck SCRF=Check GenChk RPM6/ZDO Freq\\Ethane DFT B3L
 PY aug-cc-pVTZ Opt Freq - Full - NBO\\0,1\C,-0.0781353507,0.2848696808
 ,0.0079336822\H,0.269156073,-0.7545428498,-0.0248259413\H,0.2693362142
 ,0.7760847408,-0.9086001203\H,-1.1738671563,0.2660264045,-0.0249247398
 \C,0.4287289774,1.0016653892,1.2494709678\H,1.524460783,1.0205086655,1
 .2823293898\H,0.0814375537,2.0410779198,1.2822305913\H,0.0812574125,0.
 5104503292,2.1660047703\\Version=EM64M-G16RevA.03\State=1-A1G\HF=-0.02
 51803\RMSD=9.640e-11\RMSF=2.672e-07\ZeroPoint=0.0671182\Thermal=0.0707
 935\Dipole=0.,0.,0.\DipoleDeriv=-0.4969772,0.0171558,0.0297151,0.01715
 58,-0.4848471,0.0420223,0.0297151,0.0420223,-0.4363231,0.1643734,-0.00
 27674,-0.0156615,-0.0035732,0.1664727,-0.0095944,-0.0161265,-0.0082785
 ,0.1418689,0.1643712,-0.0121801,-0.010228,-0.0121802,0.1557614,-0.0144
 637,-0.0111585,-0.0157794,0.1525823,0.168232,-0.0022085,-0.003826,-0.0
 014027,0.1626123,-0.0179647,-0.0024303,-0.0179648,0.1418706,-0.4969772
 ,0.0171558,0.0297151,0.0171558,-0.4848471,0.0420223,0.0297151,0.042022
 3,-0.4363231,0.168232,-0.0022085,-0.003826,-0.0014027,0.1626123,-0.017
 9647,-0.0024303,-0.0179648,0.1418706,0.1643734,-0.0027674,-0.0156615,-
 0.0035732,0.1664727,-0.0095944,-0.0161265,-0.0082785,0.1418689,0.16437
 12,-0.0121801,-0.010228,-0.0121802,0.1557614,-0.0144637,-0.0111585,-0.
 0157794,0.1525823\Polar=13.1947978,0.1032903,13.2678293,0.1789056,0.25
 30042,13.5599784\HyperPolar=0.,0.,0.,0.,0.,0.,0.,0.,0.,0.\PG=D03D [C3(
 C1.C1),3SGD(H2)]\NImag=0\\0.41219388,0.01057570,0.41967144,0.01831781,
 0.02590462,0.44958404,-0.05408206,0.05701834,0.00139387,0.05868838,0.0
 5578000,-0.19941109,-0.00392397,-0.06698838,0.24463968,0.00067910,-0.0
 0190153,-0.03477252,0.00097382,0.01193648,0.04289719,-0.05410176,-0.02
 730923,0.05010141,0.00516351,0.00340086,-0.00404505,0.05871224,-0.0273
 0937,-0.07339099,0.07082817,-0.00520949,-0.01760708,0.01944319,0.03434
 641,0.08297288,0.04867123,0.06880598,-0.16077292,0.00092512,0.00767440
 ,-0.00195349,-0.05755818,-0.08136731,0.20454013,-0.21871261,-0.0023923
 3,-0.00418081,-0.01450843,0.00777628,0.00038565,-0.01451391,-0.0035510
 5,0.00692683,0.26608357,-0.00115384,-0.03477998,0.00000682,0.02312538,
 -0.00358942,-0.00059740,-0.01216065,0.00206831,0.00342771,0.00629523,0
 .03724313,-0.00203586,0.00000657,-0.03477309,-0.00069491,0.00016577,0.
 00370079,0.01967969,0.00266317,-0.00195145,0.01095007,0.00489590,0.042
 89855,-0.07551292,-0.02598780,-0.04501259,0.00428875,0.00077726,0.0029
 6876,0.00428998,0.00218377,0.00216208,-0.01836335,-0.01486573,-0.02575
 058,0.41219388,-0.02598780,-0.09388763,-0.06365575,-0.00685930,-0.0233
 4458,-0.02626181,0.00218291,0.00583247,0.00305323,-0.00722831,-0.00068
 976,-0.00595136,0.01057570,0.41967144,-0.04501259,-0.06365575,-0.16739
 223,-0.00143907,-0.01378992,-0.00756415,-0.00665749,-0.00941711,-0.036
 74243,-0.01252318,-0.00595292,-0.00756687,0.01831781,0.02590462,0.4495
 8404,-0.01836335,-0.00722831,-0.01252318,0.00021810,-0.00046804,-0.000
 07645,0.00021826,0.00016782,-0.00044349,-0.00042160,-0.00059957,-0.001
 03858,-0.21871261,-0.00239232,-0.00418081,0.26608357,-0.01486573,-0.00
 068976,-0.00595292,-0.00066215,-0.00018129,-0.00040636,0.00002133,0.00
 038462,0.00011930,-0.00059957,-0.00045556,-0.00149304,-0.00115384,-0.0
 3477998,0.00000682,0.00629523,0.03724313,-0.02575058,-0.00595136,-0.00
 756687,-0.00035763,-0.00020748,0.00021890,-0.00075221,-0.00007951,-0.0
 0034717,-0.00103858,-0.00149304,-0.00217960,-0.00203586,0.00000657,-0.
 03477309,0.01095007,0.00489590,0.04289855,0.00428875,-0.00685930,-0.00
 143907,-0.00007491,-0.00047708,-0.00106150,0.00030670,0.00005268,0.000
 26029,0.00021810,-0.00066215,-0.00035763,-0.05408206,0.05701834,0.0013
 9387,-0.01450843,0.02312538,-0.00069491,0.05868838,0.00077726,-0.02334
 458,-0.01378992,-0.00047708,-0.00080224,-0.00147680,0.00019913,0.00029
 607,-0.00037843,-0.00046804,-0.00018129,-0.00020748,0.05578000,-0.1994
 1109,-0.00392397,0.00777628,-0.00358942,0.00016577,-0.06698838,0.24463
 968,0.00296876,-0.02626181,-0.00756415,-0.00106150,-0.00147680,-0.0021
 7960,0.00017569,-0.00073576,-0.00034706,-0.00007645,-0.00040636,0.0002
 1890,0.00067910,-0.00190153,-0.03477252,0.00038565,-0.00059740,0.00370
 079,0.00097382,0.01193648,0.04289719,0.00428998,0.00218291,-0.00665749
 ,0.00030670,0.00019913,0.00017569,-0.00007496,-0.00068076,-0.00094386,
 0.00021826,0.00002133,-0.00075221,-0.05410176,-0.02730923,0.05010141,-
 0.01451391,-0.01216065,0.01967969,0.00516351,0.00340086,-0.00404505,0.
 05871224,0.00218377,0.00583247,-0.00941711,0.00005268,0.00029607,-0.00
 073576,-0.00068076,-0.00055624,-0.00133484,0.00016782,0.00038462,-0.00
 007951,-0.02730937,-0.07339099,0.07082817,-0.00355105,0.00206831,0.002
 66317,-0.00520949,-0.01760708,0.01944319,0.03434641,0.08297288,0.00216
 208,0.00305323,-0.03674243,0.00026029,-0.00037843,-0.00034706,-0.00094
 386,-0.00133484,-0.00242555,-0.00044349,0.00011930,-0.00034717,0.04867
 123,0.06880598,-0.16077292,0.00692683,0.00342771,-0.00195145,0.0009251
 2,0.00767440,-0.00195349,-0.05755818,-0.08136731,0.20454013\\-0.000000
 29,-0.00000041,-0.00000072,-0.00000009,0.,-0.00000014,-0.00000009,-0.0
 0000012,-0.00000007,0.00000003,-0.00000008,-0.00000014,0.00000029,0.00
 000041,0.00000072,-0.00000003,0.00000008,0.00000014,0.00000009,0.,0.00
 000014,0.00000009,0.00000012,0.00000007\\\@


 THOSE WHO TRY TO PASS CHEMISTRY OFF AS A NEW SCIENCE
 SHOW HOW LITTLE KNOWLEDGE THEY HAVE OF THE CHARACTER
 AND LITERATURE OF THE ANCIENTS.
   -- NICOLAS LEFEVRE
 "COURS DE CHYMIE" J.-N.LELOUP, PARIS, 1751
 Job cpu time:       0 days  0 hours  0 minutes  1.1 seconds.
 Elapsed time:       0 days  0 hours  0 minutes  0.8 seconds.
 File lengths (MBytes):  RWF=      6 Int=      0 D2E=      0 Chk=      2 Scr=      1
 Normal termination of Gaussian 16 at Fri Sep  6 16:45:50 2024.
