 Entering Gaussian System, Link 0=g16
 Input=/Users/asuyarger/Downloads/C2H6_HF_6311pp2d3p_Opt_Freq_Full_NBO_Raman.gjf
 Output=/Users/asuyarger/Downloads/C2H6_HF_6311pp2d3p_Opt_Freq_Full_NBO_Raman.log
 Initial command:
 /Users/asuyarger/Applications/G16/g16/l1.exe "/Users/asuyarger/Applications/G16/scratch/Gau-93027.inp" -scrdir="/Users/asuyarger/Applications/G16/scratch/"
 Entering Link 1 = /Users/asuyarger/Applications/G16/g16/l1.exe PID=     93028.
  
 Copyright (c) 1988,1990,1992,1993,1995,1998,2003,2009,2016,
            Gaussian, Inc.  All Rights Reserved.
  
 This is part of the Gaussian(R) 16 program.  It is based on
 the Gaussian(R) 09 system (copyright 2009, Gaussian, Inc.),
 the Gaussian(R) 03 system (copyright 2003, Gaussian, Inc.),
 the Gaussian(R) 98 system (copyright 1998, Gaussian, Inc.),
 the Gaussian(R) 94 system (copyright 1995, Gaussian, Inc.),
 the Gaussian 92(TM) system (copyright 1992, Gaussian, Inc.),
 the Gaussian 90(TM) system (copyright 1990, Gaussian, Inc.),
 the Gaussian 88(TM) system (copyright 1988, Gaussian, Inc.),
 the Gaussian 86(TM) system (copyright 1986, Carnegie Mellon
 University), and the Gaussian 82(TM) system (copyright 1983,
 Carnegie Mellon University). Gaussian is a federally registered
 trademark of Gaussian, Inc.
  
 This software contains proprietary and confidential information,
 including trade secrets, belonging to Gaussian, Inc.
  
 This software is provided under written license and may be
 used, copied, transmitted, or stored only in accord with that
 written license.
  
 The following legend is applicable only to US Government
 contracts under FAR:
  
                    RESTRICTED RIGHTS LEGEND
  
 Use, reproduction and disclosure by the US Government is
 subject to restrictions as set forth in subparagraphs (a)
 and (c) of the Commercial Computer Software - Restricted
 Rights clause in FAR 52.227-19.
  
 Gaussian, Inc.
 340 Quinnipiac St., Bldg. 40, Wallingford CT 06492
  
  
 ---------------------------------------------------------------
 Warning -- This program may not be used in any manner that
 competes with the business of Gaussian, Inc. or will provide
 assistance to any competitor of Gaussian, Inc.  The licensee
 of this program is prohibited from giving any competitor of
 Gaussian, Inc. access to this program.  By using this program,
 the user acknowledges that Gaussian, Inc. is engaged in the
 business of creating and licensing software in the field of
 computational chemistry and represents and warrants to the
 licensee that it is not a competitor of Gaussian, Inc. and that
 it will not use this program in any manner prohibited above.
 ---------------------------------------------------------------
  

 Cite this work as:
 Gaussian 16, Revision A.03,
 M. J. Frisch, G. W. Trucks, H. B. Schlegel, G. E. Scuseria, 
 M. A. Robb, J. R. Cheeseman, G. Scalmani, V. Barone, 
 G. A. Petersson, H. Nakatsuji, X. Li, M. Caricato, A. V. Marenich, 
 J. Bloino, B. G. Janesko, R. Gomperts, B. Mennucci, H. P. Hratchian, 
 J. V. Ortiz, A. F. Izmaylov, J. L. Sonnenberg, D. Williams-Young, 
 F. Ding, F. Lipparini, F. Egidi, J. Goings, B. Peng, A. Petrone, 
 T. Henderson, D. Ranasinghe, V. G. Zakrzewski, J. Gao, N. Rega, 
 G. Zheng, W. Liang, M. Hada, M. Ehara, K. Toyota, R. Fukuda, 
 J. Hasegawa, M. Ishida, T. Nakajima, Y. Honda, O. Kitao, H. Nakai, 
 T. Vreven, K. Throssell, J. A. Montgomery, Jr., J. E. Peralta, 
 F. Ogliaro, M. J. Bearpark, J. J. Heyd, E. N. Brothers, K. N. Kudin, 
 V. N. Staroverov, T. A. Keith, R. Kobayashi, J. Normand, 
 K. Raghavachari, A. P. Rendell, J. C. Burant, S. S. Iyengar, 
 J. Tomasi, M. Cossi, J. M. Millam, M. Klene, C. Adamo, R. Cammi, 
 J. W. Ochterski, R. L. Martin, K. Morokuma, O. Farkas, 
 J. B. Foresman, and D. J. Fox, Gaussian, Inc., Wallingford CT, 2016.
 
 ******************************************
 Gaussian 16:  EM64M-G16RevA.03 25-Dec-2016
                 6-Sep-2024 
 ******************************************
 %nprocshared=8
 Will use up to    8 processors via shared memory.
 %mem=8GB
 %chk=C2H6_HF_6311pp2d3p_Opt_Freq_Full_NBO_Raman.chk
 ----------------------------------------------------------------------
 #p opt=tight freq=raman hf/6-311++g(2d,3p) guess=save pop=(hirshfeld,f
 ull,nbo) geom=connectivity polar
 ----------------------------------------------------------------------
 1/7=10,18=20,19=15,38=1,57=2/1,3;
 2/9=110,12=2,17=6,18=5,40=1/2;
 3/5=4,6=6,7=1512,11=9,25=1,30=1,71=1/1,2,3;
 4//1;
 5/5=2,38=5,98=1/2;
 6/7=3,28=1,40=1,79=1/1,7;
 7//1,2,3,16;
 1/7=10,18=20,19=15/3(2);
 2/9=110/2;
 99//99;
 2/9=110/2;
 3/5=4,6=6,7=1512,11=9,25=1,30=1,71=1/1,2,3;
 4/5=5,16=3,69=1/1;
 5/5=2,38=5,98=1/2;
 7//1,2,3,16;
 1/7=10,18=20,19=15/3(-5);
 2/9=110/2;
 6/7=3,19=2,28=1,40=1,79=1/1,7;
 99/9=1/99;
 Leave Link    1 at Fri Sep  6 16:44:52 2024, MaxMem=  1073741824 cpu:               0.2 elap:               0.0
 (Enter /Users/asuyarger/Applications/G16/g16/l101.exe)
 --------------------------------------------------
 Ethane DFT B3LPY aug-cc-pVTZ Opt Freq - Full - NBO
 --------------------------------------------------
 Symbolic Z-matrix:
 Charge =  0 Multiplicity = 1
 C                    -0.08137   0.28029  0. 
 H                     0.2752   -0.72855   0.00005 
 H                     0.27538   0.78463  -0.87365 
 H                    -1.15137   0.28039  -0.00005 
 C                     0.43197   1.00625   1.2574 
 H                     1.50197   1.00615   1.25745 
 H                     0.07539   2.01508   1.25736 
 H                     0.07522   0.5019    2.13106 
 
 ITRead=  0  0  0  0  0  0  0  0
 MicOpt= -1 -1 -1 -1 -1 -1 -1 -1
 NAtoms=      8 NQM=        8 NQMF=       0 NMMI=      0 NMMIF=      0
                NMic=       0 NMicF=      0.
                    Isotopes and Nuclear Properties:
 (Nuclear quadrupole moments (NQMom) in fm**2, nuclear magnetic moments (NMagM)
  in nuclear magnetons)

  Atom         1           2           3           4           5           6           7           8
 IAtWgt=          12           1           1           1          12           1           1           1
 AtmWgt=  12.0000000   1.0078250   1.0078250   1.0078250  12.0000000   1.0078250   1.0078250   1.0078250
 NucSpn=           0           1           1           1           0           1           1           1
 AtZEff=  -0.0000000  -0.0000000  -0.0000000  -0.0000000  -0.0000000  -0.0000000  -0.0000000  -0.0000000
 NQMom=    0.0000000   0.0000000   0.0000000   0.0000000   0.0000000   0.0000000   0.0000000   0.0000000
 NMagM=    0.0000000   2.7928460   2.7928460   2.7928460   0.0000000   2.7928460   2.7928460   2.7928460
 AtZNuc=   6.0000000   1.0000000   1.0000000   1.0000000   6.0000000   1.0000000   1.0000000   1.0000000
 Leave Link  101 at Fri Sep  6 16:44:52 2024, MaxMem=  1073741824 cpu:               1.2 elap:               0.2
 (Enter /Users/asuyarger/Applications/G16/g16/l103.exe)

 GradGradGradGradGradGradGradGradGradGradGradGradGradGradGradGradGradGrad
 Berny optimization.
 Initialization pass.
                           ----------------------------
                           !    Initial Parameters    !
                           ! (Angstroms and Degrees)  !
 --------------------------                            --------------------------
 ! Name  Definition              Value          Derivative Info.                !
 --------------------------------------------------------------------------------
 ! R1    R(1,2)                  1.07           estimate D2E/DX2                !
 ! R2    R(1,3)                  1.07           estimate D2E/DX2                !
 ! R3    R(1,4)                  1.07           estimate D2E/DX2                !
 ! R4    R(1,5)                  1.54           estimate D2E/DX2                !
 ! R5    R(5,6)                  1.07           estimate D2E/DX2                !
 ! R6    R(5,7)                  1.07           estimate D2E/DX2                !
 ! R7    R(5,8)                  1.07           estimate D2E/DX2                !
 ! A1    A(2,1,3)              109.4712         estimate D2E/DX2                !
 ! A2    A(2,1,4)              109.4712         estimate D2E/DX2                !
 ! A3    A(2,1,5)              109.4712         estimate D2E/DX2                !
 ! A4    A(3,1,4)              109.4712         estimate D2E/DX2                !
 ! A5    A(3,1,5)              109.4712         estimate D2E/DX2                !
 ! A6    A(4,1,5)              109.4712         estimate D2E/DX2                !
 ! A7    A(1,5,6)              109.4712         estimate D2E/DX2                !
 ! A8    A(1,5,7)              109.4712         estimate D2E/DX2                !
 ! A9    A(1,5,8)              109.4712         estimate D2E/DX2                !
 ! A10   A(6,5,7)              109.4712         estimate D2E/DX2                !
 ! A11   A(6,5,8)              109.4712         estimate D2E/DX2                !
 ! A12   A(7,5,8)              109.4712         estimate D2E/DX2                !
 ! D1    D(2,1,5,6)             60.0            estimate D2E/DX2                !
 ! D2    D(2,1,5,7)            180.0            estimate D2E/DX2                !
 ! D3    D(2,1,5,8)            -60.0            estimate D2E/DX2                !
 ! D4    D(3,1,5,6)            -60.0            estimate D2E/DX2                !
 ! D5    D(3,1,5,7)             60.0            estimate D2E/DX2                !
 ! D6    D(3,1,5,8)            180.0            estimate D2E/DX2                !
 ! D7    D(4,1,5,6)            180.0            estimate D2E/DX2                !
 ! D8    D(4,1,5,7)            -60.0            estimate D2E/DX2                !
 ! D9    D(4,1,5,8)             60.0            estimate D2E/DX2                !
 --------------------------------------------------------------------------------
 Trust Radius=3.00D-01 FncErr=1.00D-07 GrdErr=1.00D-07 EigMax=2.50D+02 EigMin=1.00D-04
 Number of steps in this run=     38 maximum allowed number of steps=    100.
 GradGradGradGradGradGradGradGradGradGradGradGradGradGradGradGradGradGrad

 Leave Link  103 at Fri Sep  6 16:44:53 2024, MaxMem=  1073741824 cpu:               0.1 elap:               0.0
 (Enter /Users/asuyarger/Applications/G16/g16/l202.exe)
                          Input orientation:                          
 ---------------------------------------------------------------------
 Center     Atomic      Atomic             Coordinates (Angstroms)
 Number     Number       Type             X           Y           Z
 ---------------------------------------------------------------------
      1          6           0       -0.081374    0.280289   -0.000000
      2          1           0        0.275200   -0.728549    0.000049
      3          1           0        0.275378    0.784631   -0.873651
      4          1           0       -1.151374    0.280387   -0.000049
      5          6           0        0.431968    1.006246    1.257405
      6          1           0        1.501968    1.006148    1.257453
      7          1           0        0.075393    2.015084    1.257356
      8          1           0        0.075215    0.501904    2.131056
 ---------------------------------------------------------------------
                    Distance matrix (angstroms):
                    1          2          3          4          5
     1  C    0.000000
     2  H    1.070000   0.000000
     3  H    1.070000   1.747303   0.000000
     4  H    1.070000   1.747303   1.747303   0.000000
     5  C    1.540000   2.148263   2.148263   2.148263   0.000000
     6  H    2.148263   2.468846   2.468846   3.024610   1.070000
     7  H    2.148263   3.024610   2.468846   2.468846   1.070000
     8  H    2.148263   2.468846   3.024610   2.468846   1.070000
                    6          7          8
     6  H    0.000000
     7  H    1.747303   0.000000
     8  H    1.747303   1.747303   0.000000
 Stoichiometry    C2H6
 Framework group  D3D[C3(C.C),3SGD(H2)]
 Deg. of freedom     3
 Full point group                 D3D     NOp  12
 Largest Abelian subgroup         C2H     NOp   4
 Largest concise Abelian subgroup C2H     NOp   4
                         Standard orientation:                         
 ---------------------------------------------------------------------
 Center     Atomic      Atomic             Coordinates (Angstroms)
 Number     Number       Type             X           Y           Z
 ---------------------------------------------------------------------
      1          6           0       -0.000000   -0.000000    0.770000
      2          1           0       -0.000000    1.008806    1.126667
      3          1           0        0.873651   -0.504403    1.126667
      4          1           0       -0.873651   -0.504403    1.126667
      5          6           0        0.000000    0.000000   -0.770000
      6          1           0        0.873651    0.504403   -1.126667
      7          1           0       -0.000000   -1.008806   -1.126667
      8          1           0       -0.873651    0.504403   -1.126667
 ---------------------------------------------------------------------
 Rotational constants (GHZ):          82.1231828          20.2293845          20.2293845
 Leave Link  202 at Fri Sep  6 16:44:53 2024, MaxMem=  1073741824 cpu:               0.0 elap:               0.0
 (Enter /Users/asuyarger/Applications/G16/g16/l301.exe)
 Standard basis: 6-311++G(2d,3p) (5D, 7F)
 Ernie: Thresh=  0.10000D-02 Tol=  0.10000D-05 Strict=F.
 There are    44 symmetry adapted cartesian basis functions of AG  symmetry.
 There are    24 symmetry adapted cartesian basis functions of BG  symmetry.
 There are    24 symmetry adapted cartesian basis functions of AU  symmetry.
 There are    44 symmetry adapted cartesian basis functions of BU  symmetry.
 There are    42 symmetry adapted basis functions of AG  symmetry.
 There are    24 symmetry adapted basis functions of BG  symmetry.
 There are    24 symmetry adapted basis functions of AU  symmetry.
 There are    42 symmetry adapted basis functions of BU  symmetry.
   132 basis functions,   174 primitive gaussians,   136 cartesian basis functions
     9 alpha electrons        9 beta electrons
       nuclear repulsion energy        42.6703217105 Hartrees.
 IExCor=    0 DFT=F Ex=HF Corr=None ExCW=0 ScaHFX=  1.000000
 ScaDFX=  1.000000  1.000000  1.000000  1.000000 ScalE2=  1.000000  1.000000
 IRadAn=      5 IRanWt=     -1 IRanGd=            0 ICorTp=0 IEmpDi=  4
 NAtoms=    8 NActive=    8 NUniq=    2 SFac= 4.00D+00 NAtFMM=   60 NAOKFM=F Big=F
 Integral buffers will be    131072 words long.
 Raffenetti 1 integral format.
 Two-electron integral symmetry is turned on.
 Leave Link  301 at Fri Sep  6 16:44:53 2024, MaxMem=  1073741824 cpu:               0.2 elap:               0.0
 (Enter /Users/asuyarger/Applications/G16/g16/l302.exe)
 NPDir=0 NMtPBC=     1 NCelOv=     1 NCel=       1 NClECP=     1 NCelD=      1
         NCelK=      1 NCelE2=     1 NClLst=     1 CellRange=     0.0.
 One-electron integrals computed using PRISM.
 One-electron integral symmetry used in STVInt
 NBasis=   132 RedAO= T EigKep=  7.32D-05  NBF=    42    24    24    42
 NBsUse=   132 1.00D-06 EigRej= -1.00D+00 NBFU=    42    24    24    42
 Leave Link  302 at Fri Sep  6 16:44:53 2024, MaxMem=  1073741824 cpu:               0.6 elap:               0.1
 (Enter /Users/asuyarger/Applications/G16/g16/l303.exe)
 DipDrv:  MaxL=1.
 Leave Link  303 at Fri Sep  6 16:44:53 2024, MaxMem=  1073741824 cpu:               0.1 elap:               0.0
 (Enter /Users/asuyarger/Applications/G16/g16/l401.exe)
 ExpMin= 3.60D-02 ExpMax= 4.56D+03 ExpMxC= 6.82D+02 IAcc=3 IRadAn=         5 AccDes= 0.00D+00
 Harris functional with IExCor=  205 and IRadAn=       5 diagonalized for initial guess.
 HarFok:  IExCor=  205 AccDes= 0.00D+00 IRadAn=         5 IDoV= 1 UseB2=F ITyADJ=14
 ICtDFT=  3500011 ScaDFX=  1.000000  1.000000  1.000000  1.000000
 FoFCou: FMM=F IPFlag=           0 FMFlag=      100000 FMFlg1=           0
         NFxFlg=           0 DoJE=T BraDBF=F KetDBF=T FulRan=T
         wScrn=  0.000000 ICntrl=       500 IOpCl=  0 I1Cent=   200000004 NGrid=           0
         NMat0=    1 NMatS0=      1 NMatT0=    0 NMatD0=    1 NMtDS0=    0 NMtDT0=    0
 Petite list used in FoFCou.
 Harris En= -79.5476703924796    
 JPrj=0 DoOrth=F DoCkMO=F.
 Initial guess orbital symmetries:
       Occupied  (A1G) (A2U) (A1G) (A2U) (EU) (EU) (A1G) (EG) (EG)
       Virtual   (A1G) (A2U) (EU) (EU) (EG) (EG) (A2U) (A1G) (EG)
                 (EG) (EU) (EU) (A1G) (A2U) (EU) (EU) (EG) (EG)
                 (A2U) (A2U) (A1G) (EU) (EU) (EG) (EG) (EU) (EU)
                 (A1G) (A1U) (EG) (EG) (EU) (EU) (A2U) (A1G) (EG)
                 (EG) (A2U) (A2G) (A2U) (A1G) (EG) (EG) (EU) (EU)
                 (A1G) (A2U) (EG) (EG) (EU) (EU) (EU) (EU) (A2U)
                 (EG) (EG) (A1G) (EG) (EG) (A2U) (EU) (EU) (A1G)
                 (A1U) (A2G) (EG) (EG) (EU) (EU) (A1G) (A2U) (EG)
                 (EG) (EU) (EU) (EU) (EU) (A1G) (EG) (EG) (A2U)
                 (EG) (EG) (A1G) (EU) (EU) (A2U) (EU) (EU) (A1G)
                 (EG) (EG) (EG) (EG) (EU) (EU) (A2U) (A1G) (EU)
                 (EU) (EG) (EG) (A2U) (A1U) (A2G) (EG) (EG) (EU)
                 (EU) (A1G) (A2U) (EU) (EU) (A2U) (EG) (EG) (A1G)
                 (EG) (EG) (EU) (EU) (A2U) (A1G)
 The electronic state of the initial guess is 1-A1G.
 Leave Link  401 at Fri Sep  6 16:44:53 2024, MaxMem=  1073741824 cpu:               0.9 elap:               0.2
 (Enter /Users/asuyarger/Applications/G16/g16/l502.exe)
 Keep R1 ints in memory in symmetry-blocked form, NReq=48253885.
 FoFCou: FMM=F IPFlag=           0 FMFlag=           0 FMFlg1=           0
         NFxFlg=           0 DoJE=F BraDBF=F KetDBF=F FulRan=T
         wScrn=  0.000000 ICntrl=       600 IOpCl=  0 I1Cent=           0 NGrid=           0
         NMat0=    1 NMatS0=   8778 NMatT0=    0 NMatD0=    1 NMtDS0=    0 NMtDT0=    0
 Petite list used in FoFCou.
 Closed shell SCF:
 Using DIIS extrapolation, IDIIS=  1040.
 NGot=  1073741824 LenX=  1063980377 LenY=  1063961440
 Requested convergence on RMS density matrix=1.00D-08 within 128 cycles.
 Requested convergence on MAX density matrix=1.00D-06.
 Requested convergence on             energy=1.00D-06.
 No special actions if energy rises.

 Cycle   1  Pass 1  IDiag  1:
 E= -79.0485308661144    
 DIIS: error= 5.70D-02 at cycle   1 NSaved=   1.
 NSaved= 1 IEnMin= 1 EnMin= -79.0485308661144     IErMin= 1 ErrMin= 5.70D-02
 ErrMax= 5.70D-02  0.00D+00 EMaxC= 1.00D-01 BMatC= 2.80D-01 BMatP= 2.80D-01
 IDIUse=3 WtCom= 4.30D-01 WtEn= 5.70D-01
 Coeff-Com:  0.100D+01
 Coeff-En:   0.100D+01
 Coeff:      0.100D+01
 Gap=     0.494 Goal=   None    Shift=    0.000
 GapD=    0.494 DampG=2.000 DampE=0.500 DampFc=1.0000 IDamp=-1.
 RMSDP=2.62D-03 MaxDP=1.10D-01              OVMax= 1.44D-01

 Cycle   2  Pass 1  IDiag  1:
 E= -79.2176841998499     Delta-E=       -0.169153333736 Rises=F Damp=F
 DIIS: error= 3.87D-02 at cycle   2 NSaved=   2.
 NSaved= 2 IEnMin= 2 EnMin= -79.2176841998499     IErMin= 2 ErrMin= 3.87D-02
 ErrMax= 3.87D-02  0.00D+00 EMaxC= 1.00D-01 BMatC= 3.92D-02 BMatP= 2.80D-01
 IDIUse=3 WtCom= 6.13D-01 WtEn= 3.87D-01
 Coeff-Com:  0.231D+00 0.769D+00
 Coeff-En:   0.000D+00 0.100D+01
 Coeff:      0.142D+00 0.858D+00
 Gap=     0.561 Goal=   None    Shift=    0.000
 RMSDP=1.22D-03 MaxDP=4.49D-02 DE=-1.69D-01 OVMax= 6.93D-02

 Cycle   3  Pass 1  IDiag  1:
 E= -79.2525960325037     Delta-E=       -0.034911832654 Rises=F Damp=F
 DIIS: error= 6.16D-03 at cycle   3 NSaved=   3.
 NSaved= 3 IEnMin= 3 EnMin= -79.2525960325037     IErMin= 3 ErrMin= 6.16D-03
 ErrMax= 6.16D-03  0.00D+00 EMaxC= 1.00D-01 BMatC= 2.57D-03 BMatP= 3.92D-02
 IDIUse=3 WtCom= 9.38D-01 WtEn= 6.16D-02
 Coeff-Com: -0.238D-01 0.164D+00 0.860D+00
 Coeff-En:   0.000D+00 0.000D+00 0.100D+01
 Coeff:     -0.224D-01 0.154D+00 0.869D+00
 Gap=     0.537 Goal=   None    Shift=    0.000
 RMSDP=2.46D-04 MaxDP=7.21D-03 DE=-3.49D-02 OVMax= 1.33D-02

 Cycle   4  Pass 1  IDiag  1:
 E= -79.2551583975924     Delta-E=       -0.002562365089 Rises=F Damp=F
 DIIS: error= 1.37D-03 at cycle   4 NSaved=   4.
 NSaved= 4 IEnMin= 4 EnMin= -79.2551583975924     IErMin= 4 ErrMin= 1.37D-03
 ErrMax= 1.37D-03  0.00D+00 EMaxC= 1.00D-01 BMatC= 2.04D-05 BMatP= 2.57D-03
 IDIUse=3 WtCom= 9.86D-01 WtEn= 1.37D-02
 Coeff-Com:  0.946D-03-0.391D-01-0.123D+00 0.116D+01
 Coeff-En:   0.000D+00 0.000D+00 0.000D+00 0.100D+01
 Coeff:      0.934D-03-0.385D-01-0.121D+00 0.116D+01
 Gap=     0.538 Goal=   None    Shift=    0.000
 RMSDP=4.81D-05 MaxDP=9.08D-04 DE=-2.56D-03 OVMax= 3.75D-03

 Cycle   5  Pass 1  IDiag  1:
 E= -79.2552078243646     Delta-E=       -0.000049426772 Rises=F Damp=F
 DIIS: error= 2.31D-04 at cycle   5 NSaved=   5.
 NSaved= 5 IEnMin= 5 EnMin= -79.2552078243646     IErMin= 5 ErrMin= 2.31D-04
 ErrMax= 2.31D-04  0.00D+00 EMaxC= 1.00D-01 BMatC= 1.17D-06 BMatP= 2.04D-05
 IDIUse=3 WtCom= 9.98D-01 WtEn= 2.31D-03
 Coeff-Com:  0.121D-02-0.568D-02-0.345D-01-0.166D+00 0.121D+01
 Coeff-En:   0.000D+00 0.000D+00 0.000D+00 0.000D+00 0.100D+01
 Coeff:      0.121D-02-0.567D-02-0.344D-01-0.166D+00 0.120D+01
 Gap=     0.538 Goal=   None    Shift=    0.000
 RMSDP=1.56D-05 MaxDP=2.47D-04 DE=-4.94D-05 OVMax= 1.08D-03

 Cycle   6  Pass 1  IDiag  1:
 E= -79.2552110041245     Delta-E=       -0.000003179760 Rises=F Damp=F
 DIIS: error= 1.67D-05 at cycle   6 NSaved=   6.
 NSaved= 6 IEnMin= 6 EnMin= -79.2552110041245     IErMin= 6 ErrMin= 1.67D-05
 ErrMax= 1.67D-05  0.00D+00 EMaxC= 1.00D-01 BMatC= 8.60D-09 BMatP= 1.17D-06
 IDIUse=1 WtCom= 1.00D+00 WtEn= 0.00D+00
 Coeff-Com: -0.134D-03 0.106D-02 0.610D-02 0.834D-02-0.172D+00 0.116D+01
 Coeff:     -0.134D-03 0.106D-02 0.610D-02 0.834D-02-0.172D+00 0.116D+01
 Gap=     0.538 Goal=   None    Shift=    0.000
 RMSDP=1.76D-06 MaxDP=2.10D-05 DE=-3.18D-06 OVMax= 9.16D-05

 Cycle   7  Pass 1  IDiag  1:
 E= -79.2552110253372     Delta-E=       -0.000000021213 Rises=F Damp=F
 DIIS: error= 1.23D-06 at cycle   7 NSaved=   7.
 NSaved= 7 IEnMin= 7 EnMin= -79.2552110253372     IErMin= 7 ErrMin= 1.23D-06
 ErrMax= 1.23D-06  0.00D+00 EMaxC= 1.00D-01 BMatC= 1.09D-10 BMatP= 8.60D-09
 IDIUse=1 WtCom= 1.00D+00 WtEn= 0.00D+00
 Coeff-Com:  0.126D-04-0.154D-03-0.894D-03 0.610D-03 0.209D-01-0.248D+00
 Coeff-Com:  0.123D+01
 Coeff:      0.126D-04-0.154D-03-0.894D-03 0.610D-03 0.209D-01-0.248D+00
 Coeff:      0.123D+01
 Gap=     0.538 Goal=   None    Shift=    0.000
 RMSDP=2.88D-07 MaxDP=3.27D-06 DE=-2.12D-08 OVMax= 8.39D-06

 Cycle   8  Pass 1  IDiag  1:
 E= -79.2552110256080     Delta-E=       -0.000000000271 Rises=F Damp=F
 DIIS: error= 1.31D-07 at cycle   8 NSaved=   8.
 NSaved= 8 IEnMin= 8 EnMin= -79.2552110256080     IErMin= 8 ErrMin= 1.31D-07
 ErrMax= 1.31D-07  0.00D+00 EMaxC= 1.00D-01 BMatC= 1.10D-12 BMatP= 1.09D-10
 IDIUse=1 WtCom= 1.00D+00 WtEn= 0.00D+00
 Coeff-Com: -0.106D-05 0.187D-04 0.120D-03-0.312D-03-0.205D-02 0.359D-01
 Coeff-Com: -0.228D+00 0.119D+01
 Coeff:     -0.106D-05 0.187D-04 0.120D-03-0.312D-03-0.205D-02 0.359D-01
 Coeff:     -0.228D+00 0.119D+01
 Gap=     0.538 Goal=   None    Shift=    0.000
 RMSDP=2.88D-08 MaxDP=3.56D-07 DE=-2.71D-10 OVMax= 4.73D-07

 Cycle   9  Pass 1  IDiag  1:
 E= -79.2552110256086     Delta-E=       -0.000000000001 Rises=F Damp=F
 DIIS: error= 1.71D-08 at cycle   9 NSaved=   9.
 NSaved= 9 IEnMin= 9 EnMin= -79.2552110256086     IErMin= 9 ErrMin= 1.71D-08
 ErrMax= 1.71D-08  0.00D+00 EMaxC= 1.00D-01 BMatC= 1.17D-14 BMatP= 1.10D-12
 IDIUse=1 WtCom= 1.00D+00 WtEn= 0.00D+00
 Coeff-Com:  0.790D-08-0.133D-05-0.106D-04 0.527D-04 0.117D-03-0.358D-02
 Coeff-Com:  0.271D-01-0.228D+00 0.120D+01
 Coeff:      0.790D-08-0.133D-05-0.106D-04 0.527D-04 0.117D-03-0.358D-02
 Coeff:      0.271D-01-0.228D+00 0.120D+01
 Gap=     0.538 Goal=   None    Shift=    0.000
 RMSDP=2.94D-09 MaxDP=5.62D-08 DE=-6.54D-13 OVMax= 8.59D-08

 SCF Done:  E(RHF) =  -79.2552110256     A.U. after    9 cycles
            NFock=  9  Conv=0.29D-08     -V/T= 1.9987
 KE= 7.936066211596D+01 PE=-2.692770036532D+02 EE= 6.799080880114D+01
 Leave Link  502 at Fri Sep  6 16:44:53 2024, MaxMem=  1073741824 cpu:               2.9 elap:               0.4
 (Enter /Users/asuyarger/Applications/G16/g16/l601.exe)
 Copying SCF densities to generalized density rwf, IOpCl= 0 IROHF=0.

 **********************************************************************

            Population analysis using the SCF density.

 **********************************************************************

 Orbital symmetries:
       Occupied  (A1G) (A2U) (A1G) (A2U) (EU) (EU) (A1G) (EG) (EG)
       Virtual   (A1G) (A2U) (EU) (EU) (EG) (EG) (A1G) (EG) (EG)
                 (A2U) (A1G) (EU) (EU) (A2U) (EU) (EU) (EG) (EG)
                 (A2U) (A1G) (A2U) (EG) (EG) (EU) (EU) (EU) (EU)
                 (A1G) (A1U) (EG) (EG) (EU) (EU) (A2U) (EG) (EG)
                 (A1G) (A2G) (A2U) (A2U) (A1G) (EU) (EU) (EG) (EG)
                 (EG) (EG) (A1G) (EU) (EU) (A2U) (EU) (EU) (A2U)
                 (A1G) (EG) (EG) (EG) (EG) (EU) (EU) (A2U) (A1G)
                 (A1U) (A2G) (EG) (EG) (EU) (EU) (A1G) (A2U) (EU)
                 (EU) (EG) (EG) (EU) (EU) (EG) (EG) (A1G) (A2U)
                 (EG) (EG) (EU) (EU) (A2U) (A1G) (A1G) (EU) (EU)
                 (EG) (EG) (EG) (EG) (EU) (EU) (A2U) (A1G) (EU)
                 (EU) (EG) (EG) (A2U) (A1U) (A2G) (EG) (EG) (A1G)
                 (EU) (EU) (A2U) (EU) (EU) (A2U) (EG) (EG) (A1G)
                 (EG) (EG) (EU) (EU) (A2U) (A1G)
 The electronic state is 1-A1G.
 Alpha  occ. eigenvalues --  -11.20168 -11.20110  -1.02138  -0.84596  -0.60513
 Alpha  occ. eigenvalues --   -0.60513  -0.49649  -0.49525  -0.49525
 Alpha virt. eigenvalues --    0.04258   0.05956   0.06574   0.06574   0.09692
 Alpha virt. eigenvalues --    0.09692   0.13975   0.14348   0.14348   0.17185
 Alpha virt. eigenvalues --    0.18137   0.19413   0.19413   0.19703   0.28431
 Alpha virt. eigenvalues --    0.28431   0.30974   0.30974   0.36391   0.38711
 Alpha virt. eigenvalues --    0.42604   0.46437   0.46437   0.47013   0.47013
 Alpha virt. eigenvalues --    0.49027   0.49027   0.50496   0.60019   0.66848
 Alpha virt. eigenvalues --    0.66848   0.68704   0.68704   0.68724   0.70230
 Alpha virt. eigenvalues --    0.70230   0.70405   0.71650   0.78247   0.85073
 Alpha virt. eigenvalues --    0.92234   0.95032   0.95032   0.97467   0.97467
 Alpha virt. eigenvalues --    1.01273   1.01273   1.04318   1.04441   1.04441
 Alpha virt. eigenvalues --    1.09089   1.18948   1.18948   1.23263   1.31818
 Alpha virt. eigenvalues --    1.34313   1.34313   1.50575   1.50575   1.61768
 Alpha virt. eigenvalues --    1.61768   1.62696   1.66245   2.04816   2.07209
 Alpha virt. eigenvalues --    2.12095   2.12095   2.20937   2.20937   2.21367
 Alpha virt. eigenvalues --    2.39372   2.65699   2.65699   2.66882   2.66882
 Alpha virt. eigenvalues --    2.71914   2.71914   2.74619   2.74619   2.84299
 Alpha virt. eigenvalues --    2.90243   3.26411   3.26411   3.34197   3.34197
 Alpha virt. eigenvalues --    3.35889   3.44782   3.67967   3.77159   3.77159
 Alpha virt. eigenvalues --    3.86664   3.86664   3.94434   3.94434   3.94868
 Alpha virt. eigenvalues --    3.94868   3.97858   3.99782   4.61271   4.61271
 Alpha virt. eigenvalues --    4.67014   4.67014   4.87079   8.74218   8.76025
 Alpha virt. eigenvalues --    8.77949   8.77949   8.79201   8.79687   8.79687
 Alpha virt. eigenvalues --    8.87158   8.90775   8.90775   8.94362   8.98662
 Alpha virt. eigenvalues --    8.98662   9.07310   9.15913   9.15913   9.18065
 Alpha virt. eigenvalues --    9.18065  25.17188  25.33007
     Molecular Orbital Coefficients:
                           1         2         3         4         5
                       (A1G)--O  (A2U)--O  (A1G)--O  (A2U)--O   (EU)--O
     Eigenvalues --   -11.20168 -11.20110  -1.02138  -0.84596  -0.60513
   1 1   C  1S          0.39829   0.39835  -0.07701  -0.06788   0.00000
   2        2S          0.32978   0.32993  -0.12692  -0.11271   0.00000
   3        2PX         0.00000   0.00000   0.00000   0.00000   0.13608
   4        2PY        -0.00000  -0.00000  -0.00000   0.00000   0.00000
   5        2PZ        -0.00012   0.00004  -0.02197   0.05412   0.00000
   6        3S          0.00377   0.00329   0.31490   0.28524   0.00000
   7        3PX         0.00000   0.00000   0.00000   0.00000   0.20845
   8        3PY        -0.00000   0.00000  -0.00000  -0.00000   0.00000
   9        3PZ        -0.00022   0.00043  -0.04608   0.08033   0.00000
  10        4S         -0.00089  -0.00274   0.10131   0.10830   0.00000
  11        4PX         0.00000   0.00000   0.00000   0.00000   0.11522
  12        4PY        -0.00000   0.00000   0.00000  -0.00000   0.00000
  13        4PZ         0.00067   0.00081  -0.04851   0.02532   0.00000
  14        5S         -0.00149  -0.00228  -0.00671  -0.05216   0.00000
  15        5PX         0.00000   0.00000   0.00000   0.00000  -0.01046
  16        5PY         0.00000  -0.00000  -0.00000  -0.00000   0.00000
  17        5PZ        -0.00005   0.00018   0.00117  -0.00561   0.00000
  18        6D 0        0.00004  -0.00015   0.00390  -0.00753   0.00000
  19        6D+1        0.00000   0.00000   0.00000   0.00000   0.00373
  20        6D-1       -0.00000   0.00000  -0.00000   0.00000   0.00000
  21        6D+2       -0.00000  -0.00000   0.00000  -0.00000   0.00000
  22        6D-2        0.00000   0.00000   0.00000   0.00000  -0.01019
  23        7D 0       -0.00017  -0.00018   0.01272  -0.00728   0.00000
  24        7D+1        0.00000   0.00000   0.00000   0.00000  -0.00408
  25        7D-1       -0.00000   0.00000   0.00000  -0.00000   0.00000
  26        7D+2        0.00000  -0.00000  -0.00000   0.00000   0.00000
  27        7D-2        0.00000   0.00000   0.00000   0.00000  -0.00877
  28 2   H  1S          0.00029   0.00029   0.05462   0.07306   0.00000
  29        2S         -0.00020  -0.00005   0.08326   0.10794   0.00000
  30        3S          0.00071   0.00062   0.01773   0.03905   0.00000
  31        4S          0.00022   0.00017   0.00150   0.01135   0.00000
  32        5PX         0.00000   0.00000   0.00000   0.00000   0.00104
  33        5PY        -0.00007  -0.00007  -0.00164  -0.00239   0.00000
  34        5PZ        -0.00003  -0.00002  -0.00075  -0.00045   0.00000
  35        6PX         0.00000   0.00000   0.00000   0.00000   0.00604
  36        6PY         0.00009   0.00011  -0.01048  -0.01185   0.00000
  37        6PZ         0.00005   0.00003  -0.00483  -0.00248   0.00000
  38        7PX         0.00000   0.00000   0.00000   0.00000   0.00181
  39        7PY        -0.00001  -0.00006  -0.01166  -0.01243   0.00000
  40        7PZ        -0.00024  -0.00008   0.00371  -0.00289   0.00000
  41 3   H  1S          0.00029   0.00029   0.05462   0.07306   0.09575
  42        2S         -0.00020  -0.00005   0.08326   0.10794   0.14712
  43        3S          0.00071   0.00062   0.01773   0.03905   0.06326
  44        4S          0.00022   0.00017   0.00150   0.01135   0.01737
  45        5PX        -0.00006  -0.00006  -0.00142  -0.00207  -0.00192
  46        5PY         0.00004   0.00004   0.00082   0.00119   0.00171
  47        5PZ        -0.00003  -0.00002  -0.00075  -0.00045  -0.00139
  48        6PX         0.00008   0.00010  -0.00907  -0.01026  -0.00572
  49        6PY        -0.00005  -0.00006   0.00524   0.00593   0.00679
  50        6PZ         0.00005   0.00003  -0.00483  -0.00248  -0.00492
  51        7PX        -0.00001  -0.00005  -0.01010  -0.01077  -0.00881
  52        7PY         0.00000   0.00003   0.00583   0.00622   0.00614
  53        7PZ        -0.00024  -0.00008   0.00371  -0.00289  -0.00108
  54 4   H  1S          0.00029   0.00029   0.05462   0.07306  -0.09575
  55        2S         -0.00020  -0.00005   0.08326   0.10794  -0.14712
  56        3S          0.00071   0.00062   0.01773   0.03905  -0.06326
  57        4S          0.00022   0.00017   0.00150   0.01135  -0.01737
  58        5PX         0.00006   0.00006   0.00142   0.00207  -0.00192
  59        5PY         0.00004   0.00004   0.00082   0.00119  -0.00171
  60        5PZ        -0.00003  -0.00002  -0.00075  -0.00045   0.00139
  61        6PX        -0.00008  -0.00010   0.00907   0.01026  -0.00572
  62        6PY        -0.00005  -0.00006   0.00524   0.00593  -0.00679
  63        6PZ         0.00005   0.00003  -0.00483  -0.00248   0.00492
  64        7PX         0.00001   0.00005   0.01010   0.01077  -0.00881
  65        7PY         0.00000   0.00003   0.00583   0.00622  -0.00614
  66        7PZ        -0.00024  -0.00008   0.00371  -0.00289   0.00108
  67 5   C  1S          0.39829  -0.39835  -0.07701   0.06788   0.00000
  68        2S          0.32978  -0.32993  -0.12692   0.11271   0.00000
  69        2PX         0.00000   0.00000   0.00000   0.00000   0.13608
  70        2PY         0.00000  -0.00000   0.00000   0.00000   0.00000
  71        2PZ         0.00012   0.00004   0.02197   0.05412   0.00000
  72        3S          0.00377  -0.00329   0.31490  -0.28524   0.00000
  73        3PX         0.00000   0.00000   0.00000   0.00000   0.20845
  74        3PY         0.00000   0.00000   0.00000  -0.00000   0.00000
  75        3PZ         0.00022   0.00043   0.04608   0.08033   0.00000
  76        4S         -0.00089   0.00274   0.10131  -0.10830   0.00000
  77        4PX         0.00000   0.00000   0.00000   0.00000   0.11522
  78        4PY         0.00000   0.00000  -0.00000  -0.00000   0.00000
  79        4PZ        -0.00067   0.00081   0.04851   0.02532   0.00000
  80        5S         -0.00149   0.00228  -0.00671   0.05216   0.00000
  81        5PX         0.00000   0.00000   0.00000   0.00000  -0.01046
  82        5PY        -0.00000  -0.00000   0.00000  -0.00000   0.00000
  83        5PZ         0.00005   0.00018  -0.00117  -0.00561   0.00000
  84        6D 0        0.00004   0.00015   0.00390   0.00753   0.00000
  85        6D+1        0.00000   0.00000   0.00000   0.00000  -0.00373
  86        6D-1       -0.00000  -0.00000  -0.00000  -0.00000   0.00000
  87        6D+2       -0.00000   0.00000   0.00000   0.00000   0.00000
  88        6D-2        0.00000   0.00000   0.00000   0.00000   0.01019
  89        7D 0       -0.00017   0.00018   0.01272   0.00728   0.00000
  90        7D+1        0.00000   0.00000   0.00000   0.00000   0.00408
  91        7D-1       -0.00000  -0.00000   0.00000   0.00000   0.00000
  92        7D+2        0.00000   0.00000  -0.00000  -0.00000   0.00000
  93        7D-2        0.00000   0.00000   0.00000   0.00000   0.00877
  94 6   H  1S          0.00029  -0.00029   0.05462  -0.07306   0.09575
  95        2S         -0.00020   0.00005   0.08326  -0.10794   0.14712
  96        3S          0.00071  -0.00062   0.01773  -0.03905   0.06326
  97        4S          0.00022  -0.00017   0.00150  -0.01135   0.01737
  98        5PX        -0.00006   0.00006  -0.00142   0.00207  -0.00192
  99        5PY        -0.00004   0.00004  -0.00082   0.00119  -0.00171
 100        5PZ         0.00003  -0.00002   0.00075  -0.00045   0.00139
 101        6PX         0.00008  -0.00010  -0.00907   0.01026  -0.00572
 102        6PY         0.00005  -0.00006  -0.00524   0.00593  -0.00679
 103        6PZ        -0.00005   0.00003   0.00483  -0.00248   0.00492
 104        7PX        -0.00001   0.00005  -0.01010   0.01077  -0.00881
 105        7PY        -0.00000   0.00003  -0.00583   0.00622  -0.00614
 106        7PZ         0.00024  -0.00008  -0.00371  -0.00289   0.00108
 107 7   H  1S          0.00029  -0.00029   0.05462  -0.07306   0.00000
 108        2S         -0.00020   0.00005   0.08326  -0.10794   0.00000
 109        3S          0.00071  -0.00062   0.01773  -0.03905   0.00000
 110        4S          0.00022  -0.00017   0.00150  -0.01135   0.00000
 111        5PX         0.00000   0.00000   0.00000   0.00000   0.00104
 112        5PY         0.00007  -0.00007   0.00164  -0.00239   0.00000
 113        5PZ         0.00003  -0.00002   0.00075  -0.00045   0.00000
 114        6PX         0.00000   0.00000   0.00000   0.00000   0.00604
 115        6PY        -0.00009   0.00011   0.01048  -0.01185   0.00000
 116        6PZ        -0.00005   0.00003   0.00483  -0.00248   0.00000
 117        7PX         0.00000   0.00000   0.00000   0.00000   0.00181
 118        7PY         0.00001  -0.00006   0.01166  -0.01243   0.00000
 119        7PZ         0.00024  -0.00008  -0.00371  -0.00289   0.00000
 120 8   H  1S          0.00029  -0.00029   0.05462  -0.07306  -0.09575
 121        2S         -0.00020   0.00005   0.08326  -0.10794  -0.14712
 122        3S          0.00071  -0.00062   0.01773  -0.03905  -0.06326
 123        4S          0.00022  -0.00017   0.00150  -0.01135  -0.01737
 124        5PX         0.00006  -0.00006   0.00142  -0.00207  -0.00192
 125        5PY        -0.00004   0.00004  -0.00082   0.00119   0.00171
 126        5PZ         0.00003  -0.00002   0.00075  -0.00045  -0.00139
 127        6PX        -0.00008   0.00010   0.00907  -0.01026  -0.00572
 128        6PY         0.00005  -0.00006  -0.00524   0.00593   0.00679
 129        6PZ        -0.00005   0.00003   0.00483  -0.00248  -0.00492
 130        7PX         0.00001  -0.00005   0.01010  -0.01077  -0.00881
 131        7PY        -0.00000   0.00003  -0.00583   0.00622   0.00614
 132        7PZ         0.00024  -0.00008  -0.00371  -0.00289  -0.00108
                           6         7         8         9        10
                        (EU)--O  (A1G)--O   (EG)--O   (EG)--O  (A1G)--V
     Eigenvalues --    -0.60513  -0.49649  -0.49525  -0.49525   0.04258
   1 1   C  1S          0.00000   0.00841   0.00000  -0.00000  -0.01073
   2        2S          0.00000   0.01434   0.00000  -0.00000  -0.01818
   3        2PX         0.00000   0.00000   0.13736   0.00000   0.00000
   4        2PY         0.13608   0.00000   0.00000   0.13736  -0.00000
   5        2PZ         0.00000   0.17556   0.00000  -0.00000   0.01997
   6        3S         -0.00000  -0.03723   0.00000   0.00000   0.04370
   7        3PX         0.00000   0.00000   0.20490   0.00000   0.00000
   8        3PY         0.20845   0.00000   0.00000   0.20490   0.00000
   9        3PZ        -0.00000   0.28144   0.00000  -0.00000   0.04676
  10        4S         -0.00000  -0.03393   0.00000  -0.00000   0.73526
  11        4PX         0.00000   0.00000   0.14386   0.00000   0.00000
  12        4PY         0.11522  -0.00000   0.00000   0.14386   0.00000
  13        4PZ        -0.00000   0.22018   0.00000  -0.00000   0.10364
  14        5S          0.00000  -0.03450   0.00000  -0.00000   4.93904
  15        5PX         0.00000   0.00000   0.00098   0.00000   0.00000
  16        5PY        -0.01046   0.00000   0.00000   0.00098  -0.00000
  17        5PZ        -0.00000   0.00038   0.00000  -0.00000   0.35664
  18        6D 0       -0.00000  -0.01624   0.00000  -0.00000   0.00154
  19        6D+1        0.00000   0.00000   0.01261   0.00000   0.00000
  20        6D-1        0.00373   0.00000   0.00000   0.01261   0.00000
  21        6D+2       -0.01019  -0.00000   0.00000  -0.01239   0.00000
  22        6D-2        0.00000   0.00000  -0.01239   0.00000   0.00000
  23        7D 0        0.00000  -0.02646   0.00000   0.00000  -0.01098
  24        7D+1        0.00000   0.00000   0.02133   0.00000   0.00000
  25        7D-1       -0.00408  -0.00000   0.00000   0.02133   0.00000
  26        7D+2       -0.00877   0.00000   0.00000  -0.01216  -0.00000
  27        7D-2        0.00000   0.00000  -0.01216   0.00000   0.00000
  28 2   H  1S          0.11057   0.04781   0.00000   0.12817   0.00486
  29        2S          0.16988   0.07217   0.00000   0.20191  -0.00674
  30        3S          0.07305   0.04368   0.00000   0.11643  -0.81660
  31        4S          0.02005   0.00903   0.00000   0.00871  -1.42517
  32        5PX         0.00000   0.00000   0.00104   0.00000   0.00000
  33        5PY        -0.00291  -0.00169   0.00000  -0.00328  -0.00033
  34        5PZ        -0.00161   0.00076   0.00000  -0.00125   0.00042
  35        6PX         0.00000   0.00000   0.00605   0.00000   0.00000
  36        6PY        -0.00964  -0.00546   0.00000  -0.01069  -0.00588
  37        6PZ        -0.00568   0.00663   0.00000  -0.00650  -0.00260
  38        7PX         0.00000   0.00000   0.00084   0.00000   0.00000
  39        7PY        -0.01236  -0.00214   0.00000  -0.00917   0.07786
  40        7PZ        -0.00125  -0.00912   0.00000  -0.00793   0.08301
  41 3   H  1S         -0.05528   0.04781   0.11100  -0.06408   0.00486
  42        2S         -0.08494   0.07217   0.17486  -0.10095  -0.00674
  43        3S         -0.03652   0.04368   0.10083  -0.05822  -0.81660
  44        4S         -0.01003   0.00903   0.00755  -0.00436  -1.42517
  45        5PX         0.00171  -0.00147  -0.00220   0.00187  -0.00028
  46        5PY         0.00005   0.00085   0.00187  -0.00004   0.00016
  47        5PZ         0.00080   0.00076  -0.00108   0.00063   0.00042
  48        6PX         0.00679  -0.00473  -0.00650   0.00725  -0.00509
  49        6PY         0.00212   0.00273   0.00725   0.00186   0.00294
  50        6PZ         0.00284   0.00663  -0.00563   0.00325  -0.00260
  51        7PX         0.00614  -0.00185  -0.00667   0.00433   0.06743
  52        7PY        -0.00173   0.00107   0.00433  -0.00166  -0.03893
  53        7PZ         0.00062  -0.00912  -0.00687   0.00396   0.08301
  54 4   H  1S         -0.05528   0.04781  -0.11100  -0.06408   0.00486
  55        2S         -0.08494   0.07217  -0.17486  -0.10095  -0.00674
  56        3S         -0.03652   0.04368  -0.10083  -0.05822  -0.81660
  57        4S         -0.01003   0.00903  -0.00755  -0.00436  -1.42517
  58        5PX        -0.00171   0.00147  -0.00220  -0.00187   0.00028
  59        5PY         0.00005   0.00085  -0.00187  -0.00004   0.00016
  60        5PZ         0.00080   0.00076   0.00108   0.00063   0.00042
  61        6PX        -0.00679   0.00473  -0.00650  -0.00725   0.00509
  62        6PY         0.00212   0.00273  -0.00725   0.00186   0.00294
  63        6PZ         0.00284   0.00663   0.00563   0.00325  -0.00260
  64        7PX        -0.00614   0.00185  -0.00667  -0.00433  -0.06743
  65        7PY        -0.00173   0.00107  -0.00433  -0.00166  -0.03893
  66        7PZ         0.00062  -0.00912   0.00687   0.00396   0.08301
  67 5   C  1S         -0.00000   0.00841   0.00000  -0.00000  -0.01073
  68        2S         -0.00000   0.01434   0.00000  -0.00000  -0.01818
  69        2PX         0.00000   0.00000  -0.13736   0.00000   0.00000
  70        2PY         0.13608  -0.00000   0.00000  -0.13736   0.00000
  71        2PZ         0.00000  -0.17556   0.00000   0.00000  -0.01997
  72        3S          0.00000  -0.03723   0.00000   0.00000   0.04370
  73        3PX         0.00000   0.00000  -0.20490   0.00000   0.00000
  74        3PY         0.20845  -0.00000   0.00000  -0.20490  -0.00000
  75        3PZ        -0.00000  -0.28144   0.00000   0.00000  -0.04676
  76        4S          0.00000  -0.03393   0.00000  -0.00000   0.73526
  77        4PX         0.00000   0.00000  -0.14386   0.00000   0.00000
  78        4PY         0.11522   0.00000   0.00000  -0.14386  -0.00000
  79        4PZ        -0.00000  -0.22018   0.00000   0.00000  -0.10364
  80        5S         -0.00000  -0.03450   0.00000  -0.00000   4.93904
  81        5PX         0.00000   0.00000  -0.00098   0.00000   0.00000
  82        5PY        -0.01046  -0.00000   0.00000  -0.00098   0.00000
  83        5PZ        -0.00000  -0.00038   0.00000   0.00000  -0.35664
  84        6D 0        0.00000  -0.01624   0.00000  -0.00000   0.00154
  85        6D+1        0.00000   0.00000   0.01261   0.00000   0.00000
  86        6D-1       -0.00373   0.00000   0.00000   0.01261   0.00000
  87        6D+2        0.01019  -0.00000   0.00000  -0.01239   0.00000
  88        6D-2        0.00000   0.00000  -0.01239   0.00000   0.00000
  89        7D 0       -0.00000  -0.02646   0.00000   0.00000  -0.01098
  90        7D+1        0.00000   0.00000   0.02133   0.00000   0.00000
  91        7D-1        0.00408  -0.00000   0.00000   0.02133   0.00000
  92        7D+2        0.00877   0.00000   0.00000  -0.01216  -0.00000
  93        7D-2        0.00000   0.00000  -0.01216   0.00000   0.00000
  94 6   H  1S          0.05528   0.04781  -0.11100  -0.06408   0.00486
  95        2S          0.08494   0.07217  -0.17486  -0.10095  -0.00674
  96        3S          0.03652   0.04368  -0.10083  -0.05822  -0.81660
  97        4S          0.01003   0.00903  -0.00755  -0.00436  -1.42517
  98        5PX        -0.00171  -0.00147   0.00220   0.00187  -0.00028
  99        5PY         0.00005  -0.00085   0.00187   0.00004  -0.00016
 100        5PZ         0.00080  -0.00076  -0.00108  -0.00063  -0.00042
 101        6PX        -0.00679  -0.00473   0.00650   0.00725  -0.00509
 102        6PY         0.00212  -0.00273   0.00725  -0.00186  -0.00294
 103        6PZ         0.00284  -0.00663  -0.00563  -0.00325   0.00260
 104        7PX        -0.00614  -0.00185   0.00667   0.00433   0.06743
 105        7PY        -0.00173  -0.00107   0.00433   0.00166   0.03893
 106        7PZ         0.00062   0.00912  -0.00687  -0.00396  -0.08301
 107 7   H  1S         -0.11057   0.04781   0.00000   0.12817   0.00486
 108        2S         -0.16988   0.07217   0.00000   0.20191  -0.00674
 109        3S         -0.07305   0.04368   0.00000   0.11643  -0.81660
 110        4S         -0.02005   0.00903   0.00000   0.00871  -1.42517
 111        5PX         0.00000   0.00000  -0.00104   0.00000   0.00000
 112        5PY        -0.00291   0.00169   0.00000   0.00328   0.00033
 113        5PZ        -0.00161  -0.00076   0.00000   0.00125  -0.00042
 114        6PX         0.00000   0.00000  -0.00605   0.00000   0.00000
 115        6PY        -0.00964   0.00546   0.00000   0.01069   0.00588
 116        6PZ        -0.00568  -0.00663   0.00000   0.00650   0.00260
 117        7PX         0.00000   0.00000  -0.00084   0.00000   0.00000
 118        7PY        -0.01236   0.00214   0.00000   0.00917  -0.07786
 119        7PZ        -0.00125   0.00912   0.00000   0.00793  -0.08301
 120 8   H  1S          0.05528   0.04781   0.11100  -0.06408   0.00486
 121        2S          0.08494   0.07217   0.17486  -0.10095  -0.00674
 122        3S          0.03652   0.04368   0.10083  -0.05822  -0.81660
 123        4S          0.01003   0.00903   0.00755  -0.00436  -1.42517
 124        5PX         0.00171   0.00147   0.00220  -0.00187   0.00028
 125        5PY         0.00005  -0.00085  -0.00187   0.00004  -0.00016
 126        5PZ         0.00080  -0.00076   0.00108  -0.00063  -0.00042
 127        6PX         0.00679   0.00473   0.00650  -0.00725   0.00509
 128        6PY         0.00212  -0.00273  -0.00725  -0.00186  -0.00294
 129        6PZ         0.00284  -0.00663   0.00563  -0.00325   0.00260
 130        7PX         0.00614   0.00185   0.00667  -0.00433  -0.06743
 131        7PY        -0.00173  -0.00107  -0.00433   0.00166   0.03893
 132        7PZ         0.00062   0.00912   0.00687  -0.00396  -0.08301
                          11        12        13        14        15
                       (A2U)--V   (EU)--V   (EU)--V   (EG)--V   (EG)--V
     Eigenvalues --     0.05956   0.06574   0.06574   0.09692   0.09692
   1 1   C  1S         -0.01120  -0.00000   0.00000   0.00000   0.00000
   2        2S         -0.01900  -0.00000   0.00000   0.00000   0.00000
   3        2PX         0.00000   0.00000  -0.02727  -0.02393   0.00000
   4        2PY         0.00000  -0.02727   0.00000   0.00000  -0.02393
   5        2PZ         0.00353   0.00000   0.00000   0.00000  -0.00000
   6        3S          0.04765   0.00000   0.00000   0.00000  -0.00000
   7        3PX         0.00000   0.00000  -0.01919  -0.02490   0.00000
   8        3PY         0.00000  -0.01919   0.00000   0.00000  -0.02490
   9        3PZ         0.00325  -0.00000   0.00000   0.00000  -0.00000
  10        4S          0.73119   0.00000   0.00000   0.00000   0.00000
  11        4PX         0.00000   0.00000   0.41319   0.63859   0.00000
  12        4PY        -0.00000   0.41319   0.00000   0.00000   0.63859
  13        4PZ         0.04127  -0.00000   0.00000   0.00000   0.00000
  14        5S         12.36962   0.00000   0.00000   0.00000   0.00000
  15        5PX         0.00000   0.00000  -1.10838  -1.57357   0.00000
  16        5PY         0.00000  -1.10838   0.00000   0.00000  -1.57357
  17        5PZ        -1.35366   0.00000   0.00000   0.00000   0.00000
  18        6D 0       -0.00189  -0.00000   0.00000   0.00000   0.00000
  19        6D+1        0.00000   0.00000  -0.00083  -0.00121   0.00000
  20        6D-1        0.00000  -0.00083   0.00000   0.00000  -0.00121
  21        6D+2       -0.00000   0.00225   0.00000   0.00000   0.00216
  22        6D-2        0.00000   0.00000   0.00225   0.00216   0.00000
  23        7D 0        0.01080   0.00000   0.00000   0.00000  -0.00000
  24        7D+1        0.00000   0.00000   0.04592   0.02206   0.00000
  25        7D-1       -0.00000   0.04592   0.00000   0.00000   0.02206
  26        7D+2        0.00000  -0.05807   0.00000   0.00000  -0.06017
  27        7D-2        0.00000   0.00000  -0.05807  -0.06017   0.00000
  28 2   H  1S          0.00361  -0.00509   0.00000   0.00000  -0.00431
  29        2S          0.00466  -0.15979   0.00000   0.00000  -0.15637
  30        3S         -0.64516  -0.63376   0.00000   0.00000  -0.94668
  31        4S         -2.11241   3.28610   0.00000   0.00000   4.70188
  32        5PX         0.00000   0.00000   0.00024  -0.00025   0.00000
  33        5PY         0.00027   0.00015   0.00000   0.00000   0.00043
  34        5PZ        -0.00044  -0.00017   0.00000   0.00000   0.00006
  35        6PX         0.00000   0.00000  -0.00129  -0.00110   0.00000
  36        6PY        -0.00757   0.01263   0.00000   0.00000   0.00874
  37        6PZ        -0.00122   0.00702   0.00000   0.00000   0.00410
  38        7PX         0.00000   0.00000   0.00190  -0.04073   0.00000
  39        7PY         0.07544   0.16667   0.00000   0.00000   0.18371
  40        7PZ        -0.00279   0.06070   0.00000   0.00000   0.07791
  41 3   H  1S          0.00361   0.00255  -0.00441  -0.00373   0.00215
  42        2S          0.00466   0.07989  -0.13838  -0.13542   0.07818
  43        3S         -0.64516   0.31688  -0.54886  -0.81985   0.47334
  44        4S         -2.11241  -1.64305   2.84585   4.07195  -2.35094
  45        5PX         0.00023   0.00004   0.00017   0.00026  -0.00030
  46        5PY        -0.00013   0.00022   0.00004  -0.00030  -0.00008
  47        5PZ        -0.00044   0.00009  -0.00015   0.00005  -0.00003
  48        6PX        -0.00656  -0.00603   0.00915   0.00628  -0.00426
  49        6PY         0.00378   0.00219  -0.00603  -0.00426   0.00136
  50        6PZ        -0.00122  -0.00351   0.00608   0.00355  -0.00205
  51        7PX         0.06533  -0.07135   0.12548   0.12760  -0.09719
  52        7PY        -0.03772   0.04309  -0.07135  -0.09719   0.01538
  53        7PZ        -0.00279  -0.03035   0.05257   0.06747  -0.03896
  54 4   H  1S          0.00361   0.00255   0.00441   0.00373   0.00215
  55        2S          0.00466   0.07989   0.13838   0.13542   0.07818
  56        3S         -0.64516   0.31688   0.54886   0.81985   0.47334
  57        4S         -2.11241  -1.64305  -2.84585  -4.07195  -2.35094
  58        5PX        -0.00023  -0.00004   0.00017   0.00026   0.00030
  59        5PY        -0.00013   0.00022  -0.00004   0.00030  -0.00008
  60        5PZ        -0.00044   0.00009   0.00015  -0.00005  -0.00003
  61        6PX         0.00656   0.00603   0.00915   0.00628   0.00426
  62        6PY         0.00378   0.00219   0.00603   0.00426   0.00136
  63        6PZ        -0.00122  -0.00351  -0.00608  -0.00355  -0.00205
  64        7PX        -0.06533   0.07135   0.12548   0.12760   0.09719
  65        7PY        -0.03772   0.04309   0.07135   0.09719   0.01538
  66        7PZ        -0.00279  -0.03035  -0.05257  -0.06747  -0.03896
  67 5   C  1S          0.01120   0.00000   0.00000   0.00000   0.00000
  68        2S          0.01900   0.00000   0.00000   0.00000   0.00000
  69        2PX         0.00000   0.00000  -0.02727   0.02393   0.00000
  70        2PY         0.00000  -0.02727   0.00000   0.00000   0.02393
  71        2PZ         0.00353   0.00000   0.00000   0.00000   0.00000
  72        3S         -0.04765  -0.00000   0.00000   0.00000  -0.00000
  73        3PX         0.00000   0.00000  -0.01919   0.02490   0.00000
  74        3PY         0.00000  -0.01919   0.00000   0.00000   0.02490
  75        3PZ         0.00325  -0.00000   0.00000   0.00000   0.00000
  76        4S         -0.73119  -0.00000   0.00000   0.00000   0.00000
  77        4PX         0.00000   0.00000   0.41319  -0.63859   0.00000
  78        4PY        -0.00000   0.41319   0.00000   0.00000  -0.63859
  79        4PZ         0.04127  -0.00000   0.00000   0.00000  -0.00000
  80        5S        -12.36962  -0.00000   0.00000   0.00000   0.00000
  81        5PX         0.00000   0.00000  -1.10838   1.57357   0.00000
  82        5PY         0.00000  -1.10838   0.00000   0.00000   1.57357
  83        5PZ        -1.35366   0.00000   0.00000   0.00000  -0.00000
  84        6D 0        0.00189   0.00000   0.00000   0.00000   0.00000
  85        6D+1        0.00000   0.00000   0.00083  -0.00121   0.00000
  86        6D-1       -0.00000   0.00083   0.00000   0.00000  -0.00121
  87        6D+2        0.00000  -0.00225   0.00000   0.00000   0.00216
  88        6D-2        0.00000   0.00000  -0.00225   0.00216   0.00000
  89        7D 0       -0.01080  -0.00000   0.00000   0.00000  -0.00000
  90        7D+1        0.00000   0.00000  -0.04592   0.02206   0.00000
  91        7D-1        0.00000  -0.04592   0.00000   0.00000   0.02206
  92        7D+2       -0.00000   0.05807   0.00000   0.00000  -0.06017
  93        7D-2        0.00000   0.00000   0.05807  -0.06017   0.00000
  94 6   H  1S         -0.00361  -0.00255  -0.00441   0.00373   0.00215
  95        2S         -0.00466  -0.07989  -0.13838   0.13542   0.07818
  96        3S          0.64516  -0.31688  -0.54886   0.81985   0.47334
  97        4S          2.11241   1.64305   2.84585  -4.07195  -2.35094
  98        5PX        -0.00023  -0.00004   0.00017  -0.00026  -0.00030
  99        5PY        -0.00013   0.00022  -0.00004  -0.00030   0.00008
 100        5PZ        -0.00044   0.00009   0.00015   0.00005   0.00003
 101        6PX         0.00656   0.00603   0.00915  -0.00628  -0.00426
 102        6PY         0.00378   0.00219   0.00603  -0.00426  -0.00136
 103        6PZ        -0.00122  -0.00351  -0.00608   0.00355   0.00205
 104        7PX        -0.06533   0.07135   0.12548  -0.12760  -0.09719
 105        7PY        -0.03772   0.04309   0.07135  -0.09719  -0.01538
 106        7PZ        -0.00279  -0.03035  -0.05257   0.06747   0.03896
 107 7   H  1S         -0.00361   0.00509   0.00000   0.00000  -0.00431
 108        2S         -0.00466   0.15979   0.00000   0.00000  -0.15637
 109        3S          0.64516   0.63376   0.00000   0.00000  -0.94668
 110        4S          2.11241  -3.28610   0.00000   0.00000   4.70188
 111        5PX         0.00000   0.00000   0.00024   0.00025   0.00000
 112        5PY         0.00027   0.00015   0.00000   0.00000  -0.00043
 113        5PZ        -0.00044  -0.00017   0.00000   0.00000  -0.00006
 114        6PX         0.00000   0.00000  -0.00129   0.00110   0.00000
 115        6PY        -0.00757   0.01263   0.00000   0.00000  -0.00874
 116        6PZ        -0.00122   0.00702   0.00000   0.00000  -0.00410
 117        7PX         0.00000   0.00000   0.00190   0.04073   0.00000
 118        7PY         0.07544   0.16667   0.00000   0.00000  -0.18371
 119        7PZ        -0.00279   0.06070   0.00000   0.00000  -0.07791
 120 8   H  1S         -0.00361  -0.00255   0.00441  -0.00373   0.00215
 121        2S         -0.00466  -0.07989   0.13838  -0.13542   0.07818
 122        3S          0.64516  -0.31688   0.54886  -0.81985   0.47334
 123        4S          2.11241   1.64305  -2.84585   4.07195  -2.35094
 124        5PX         0.00023   0.00004   0.00017  -0.00026   0.00030
 125        5PY        -0.00013   0.00022   0.00004   0.00030   0.00008
 126        5PZ        -0.00044   0.00009  -0.00015  -0.00005   0.00003
 127        6PX        -0.00656  -0.00603   0.00915  -0.00628   0.00426
 128        6PY         0.00378   0.00219  -0.00603   0.00426  -0.00136
 129        6PZ        -0.00122  -0.00351   0.00608  -0.00355   0.00205
 130        7PX         0.06533  -0.07135   0.12548  -0.12760   0.09719
 131        7PY        -0.03772   0.04309  -0.07135   0.09719  -0.01538
 132        7PZ        -0.00279  -0.03035   0.05257  -0.06747   0.03896
                          16        17        18        19        20
                       (A1G)--V   (EG)--V   (EG)--V  (A2U)--V  (A1G)--V
     Eigenvalues --     0.13975   0.14348   0.14348   0.17185   0.18137
   1 1   C  1S         -0.00741   0.00000  -0.00000  -0.00426   0.02283
   2        2S         -0.01232   0.00000  -0.00000  -0.00811   0.04117
   3        2PX         0.00000  -0.00754   0.00000   0.00000   0.00000
   4        2PY         0.00000   0.00000  -0.00754   0.00000   0.00000
   5        2PZ        -0.02040   0.00000   0.00000  -0.01725  -0.03718
   6        3S          0.02837   0.00000   0.00000   0.05467  -0.15547
   7        3PX         0.00000  -0.01123   0.00000   0.00000   0.00000
   8        3PY         0.00000   0.00000  -0.01123  -0.00000   0.00000
   9        3PZ        -0.03989   0.00000  -0.00000   0.00992  -0.02248
  10        4S          0.20024   0.00000   0.00000  -0.03577   2.47923
  11        4PX         0.00000   0.72209   0.00000   0.00000   0.00000
  12        4PY        -0.00000   0.00000   0.72209  -0.00000   0.00000
  13        4PZ         0.14015   0.00000   0.00000   1.16207   0.39209
  14        5S          0.66656   0.00000  -0.00000  26.26237  12.06050
  15        5PX         0.00000   4.05295   0.00000   0.00000   0.00000
  16        5PY        -0.00000   0.00000   4.05295  -0.00000   0.00000
  17        5PZ         1.64730   0.00000   0.00000 -10.62246   0.91859
  18        6D 0        0.00488   0.00000   0.00000   0.00101   0.00339
  19        6D+1        0.00000  -0.00492   0.00000   0.00000   0.00000
  20        6D-1        0.00000   0.00000  -0.00492   0.00000   0.00000
  21        6D+2       -0.00000   0.00000   0.00514  -0.00000   0.00000
  22        6D-2        0.00000   0.00514   0.00000   0.00000   0.00000
  23        7D 0        0.03366   0.00000  -0.00000  -0.14587  -0.05796
  24        7D+1        0.00000   0.06244   0.00000   0.00000   0.00000
  25        7D-1       -0.00000   0.00000   0.06244  -0.00000   0.00000
  26        7D+2       -0.00000   0.00000   0.00820   0.00000  -0.00000
  27        7D-2        0.00000   0.00820   0.00000   0.00000   0.00000
  28 2   H  1S         -0.01059   0.00000  -0.01782   0.00560  -0.00299
  29        2S         -0.00528   0.00000  -0.09361  -0.03850  -0.08127
  30        3S          0.05918   0.00000  -1.63911  -0.80352  -2.90498
  31        4S         -0.20879   0.00000  -2.49175   1.98951  -2.51755
  32        5PX         0.00000  -0.00123   0.00000   0.00000   0.00000
  33        5PY         0.00065   0.00000   0.00078  -0.00017   0.00243
  34        5PZ        -0.00132   0.00000   0.00079  -0.00016   0.00058
  35        6PX         0.00000   0.01680   0.00000   0.00000   0.00000
  36        6PY        -0.00775   0.00000  -0.00200   0.00491   0.00143
  37        6PZ         0.01335   0.00000  -0.00130  -0.00203  -0.00372
  38        7PX         0.00000  -0.16131   0.00000   0.00000   0.00000
  39        7PY         0.02403   0.00000   0.20329   0.11894   0.35145
  40        7PZ        -0.15161   0.00000   0.03647  -0.02890   0.19859
  41 3   H  1S         -0.01059  -0.01543   0.00891   0.00560  -0.00299
  42        2S         -0.00528  -0.08107   0.04681  -0.03850  -0.08127
  43        3S          0.05918  -1.41951   0.81956  -0.80352  -2.90498
  44        4S         -0.20879  -2.15792   1.24587   1.98951  -2.51755
  45        5PX         0.00056   0.00028  -0.00087  -0.00015   0.00210
  46        5PY        -0.00032  -0.00087  -0.00072   0.00009  -0.00122
  47        5PZ        -0.00132   0.00068  -0.00039  -0.00016   0.00058
  48        6PX        -0.00672   0.00270   0.00814   0.00425   0.00124
  49        6PY         0.00388   0.00814   0.01210  -0.00245  -0.00072
  50        6PZ         0.01335  -0.00112   0.00065  -0.00203  -0.00372
  51        7PX         0.02081   0.11214  -0.15787   0.10301   0.30436
  52        7PY        -0.01201  -0.15787  -0.07016  -0.05947  -0.17572
  53        7PZ        -0.15161   0.03158  -0.01824  -0.02890   0.19859
  54 4   H  1S         -0.01059   0.01543   0.00891   0.00560  -0.00299
  55        2S         -0.00528   0.08107   0.04681  -0.03850  -0.08127
  56        3S          0.05918   1.41951   0.81956  -0.80352  -2.90498
  57        4S         -0.20879   2.15792   1.24587   1.98951  -2.51755
  58        5PX        -0.00056   0.00028   0.00087   0.00015  -0.00210
  59        5PY        -0.00032   0.00087  -0.00072   0.00009  -0.00122
  60        5PZ        -0.00132  -0.00068  -0.00039  -0.00016   0.00058
  61        6PX         0.00672   0.00270  -0.00814  -0.00425  -0.00124
  62        6PY         0.00388  -0.00814   0.01210  -0.00245  -0.00072
  63        6PZ         0.01335   0.00112   0.00065  -0.00203  -0.00372
  64        7PX        -0.02081   0.11214   0.15787  -0.10301  -0.30436
  65        7PY        -0.01201   0.15787  -0.07016  -0.05947  -0.17572
  66        7PZ        -0.15161  -0.03158  -0.01824  -0.02890   0.19859
  67 5   C  1S         -0.00741   0.00000  -0.00000   0.00426   0.02283
  68        2S         -0.01232   0.00000  -0.00000   0.00811   0.04117
  69        2PX         0.00000   0.00754   0.00000   0.00000   0.00000
  70        2PY        -0.00000   0.00000   0.00754   0.00000  -0.00000
  71        2PZ         0.02040   0.00000  -0.00000  -0.01725   0.03718
  72        3S          0.02837   0.00000   0.00000  -0.05467  -0.15547
  73        3PX         0.00000   0.01123   0.00000   0.00000   0.00000
  74        3PY        -0.00000   0.00000   0.01123  -0.00000  -0.00000
  75        3PZ         0.03989   0.00000   0.00000   0.00992   0.02248
  76        4S          0.20024   0.00000   0.00000   0.03577   2.47923
  77        4PX         0.00000  -0.72209   0.00000   0.00000   0.00000
  78        4PY         0.00000   0.00000  -0.72209  -0.00000  -0.00000
  79        4PZ        -0.14015   0.00000  -0.00000   1.16207  -0.39209
  80        5S          0.66656   0.00000  -0.00000 -26.26237  12.06050
  81        5PX         0.00000  -4.05295   0.00000   0.00000   0.00000
  82        5PY         0.00000   0.00000  -4.05295  -0.00000  -0.00000
  83        5PZ        -1.64730   0.00000  -0.00000 -10.62246  -0.91859
  84        6D 0        0.00488   0.00000   0.00000  -0.00101   0.00339
  85        6D+1        0.00000  -0.00492   0.00000   0.00000   0.00000
  86        6D-1        0.00000   0.00000  -0.00492  -0.00000   0.00000
  87        6D+2       -0.00000   0.00000   0.00514   0.00000   0.00000
  88        6D-2        0.00000   0.00514   0.00000   0.00000   0.00000
  89        7D 0        0.03366   0.00000  -0.00000   0.14587  -0.05796
  90        7D+1        0.00000   0.06244   0.00000   0.00000   0.00000
  91        7D-1       -0.00000   0.00000   0.06244   0.00000   0.00000
  92        7D+2       -0.00000   0.00000   0.00820  -0.00000  -0.00000
  93        7D-2        0.00000   0.00820   0.00000   0.00000   0.00000
  94 6   H  1S         -0.01059   0.01543   0.00891  -0.00560  -0.00299
  95        2S         -0.00528   0.08107   0.04681   0.03850  -0.08127
  96        3S          0.05918   1.41951   0.81956   0.80352  -2.90498
  97        4S         -0.20879   2.15792   1.24587  -1.98951  -2.51755
  98        5PX         0.00056  -0.00028  -0.00087   0.00015   0.00210
  99        5PY         0.00032  -0.00087   0.00072   0.00009   0.00122
 100        5PZ         0.00132   0.00068   0.00039  -0.00016  -0.00058
 101        6PX        -0.00672  -0.00270   0.00814  -0.00425   0.00124
 102        6PY        -0.00388   0.00814  -0.01210  -0.00245   0.00072
 103        6PZ        -0.01335  -0.00112  -0.00065  -0.00203   0.00372
 104        7PX         0.02081  -0.11214  -0.15787  -0.10301   0.30436
 105        7PY         0.01201  -0.15787   0.07016  -0.05947   0.17572
 106        7PZ         0.15161   0.03158   0.01824  -0.02890  -0.19859
 107 7   H  1S         -0.01059   0.00000  -0.01782  -0.00560  -0.00299
 108        2S         -0.00528   0.00000  -0.09361   0.03850  -0.08127
 109        3S          0.05918   0.00000  -1.63911   0.80352  -2.90498
 110        4S         -0.20879   0.00000  -2.49175  -1.98951  -2.51755
 111        5PX         0.00000   0.00123   0.00000   0.00000   0.00000
 112        5PY        -0.00065   0.00000  -0.00078  -0.00017  -0.00243
 113        5PZ         0.00132   0.00000  -0.00079  -0.00016  -0.00058
 114        6PX         0.00000  -0.01680   0.00000   0.00000   0.00000
 115        6PY         0.00775   0.00000   0.00200   0.00491  -0.00143
 116        6PZ        -0.01335   0.00000   0.00130  -0.00203   0.00372
 117        7PX         0.00000   0.16131   0.00000   0.00000   0.00000
 118        7PY        -0.02403   0.00000  -0.20329   0.11894  -0.35145
 119        7PZ         0.15161   0.00000  -0.03647  -0.02890  -0.19859
 120 8   H  1S         -0.01059  -0.01543   0.00891  -0.00560  -0.00299
 121        2S         -0.00528  -0.08107   0.04681   0.03850  -0.08127
 122        3S          0.05918  -1.41951   0.81956   0.80352  -2.90498
 123        4S         -0.20879  -2.15792   1.24587  -1.98951  -2.51755
 124        5PX        -0.00056  -0.00028   0.00087  -0.00015  -0.00210
 125        5PY         0.00032   0.00087   0.00072   0.00009   0.00122
 126        5PZ         0.00132  -0.00068   0.00039  -0.00016  -0.00058
 127        6PX         0.00672  -0.00270  -0.00814   0.00425  -0.00124
 128        6PY        -0.00388  -0.00814  -0.01210  -0.00245   0.00072
 129        6PZ        -0.01335   0.00112  -0.00065  -0.00203   0.00372
 130        7PX        -0.02081  -0.11214   0.15787   0.10301  -0.30436
 131        7PY         0.01201   0.15787   0.07016  -0.05947   0.17572
 132        7PZ         0.15161  -0.03158   0.01824  -0.02890  -0.19859
                          21        22        23        24        25
                        (EU)--V   (EU)--V  (A2U)--V   (EU)--V   (EU)--V
     Eigenvalues --     0.19413   0.19413   0.19703   0.28431   0.28431
   1 1   C  1S          0.00000   0.00000   0.02283  -0.00000   0.00000
   2        2S          0.00000   0.00000   0.04212  -0.00000   0.00000
   3        2PX         0.00000   0.02947   0.00000   0.00000  -0.07301
   4        2PY         0.02947   0.00000  -0.00000  -0.07301   0.00000
   5        2PZ         0.00000   0.00000  -0.00400   0.00000   0.00000
   6        3S         -0.00000   0.00000  -0.18398   0.00000   0.00000
   7        3PX         0.00000   0.04368   0.00000   0.00000  -0.20878
   8        3PY         0.04368   0.00000  -0.00000  -0.20878   0.00000
   9        3PZ         0.00000   0.00000   0.00227   0.00000   0.00000
  10        4S          0.00000   0.00000   3.31216   0.00000   0.00000
  11        4PX         0.00000  -0.73608   0.00000   0.00000  -2.76712
  12        4PY        -0.73608   0.00000  -0.00000  -2.76712   0.00000
  13        4PZ         0.00000   0.00000   0.57802   0.00000   0.00000
  14        5S          0.00000   0.00000  39.91449  -0.00000   0.00000
  15        5PX         0.00000  -3.93809   0.00000   0.00000  -0.79319
  16        5PY        -3.93809   0.00000   0.00000  -0.79319   0.00000
  17        5PZ        -0.00000   0.00000  -6.44443   0.00000   0.00000
  18        6D 0        0.00000   0.00000   0.00442   0.00000   0.00000
  19        6D+1        0.00000   0.00285   0.00000   0.00000   0.01426
  20        6D-1        0.00285   0.00000   0.00000   0.01426   0.00000
  21        6D+2       -0.00441   0.00000   0.00000  -0.00812   0.00000
  22        6D-2        0.00000  -0.00441   0.00000   0.00000  -0.00812
  23        7D 0        0.00000   0.00000   0.00747  -0.00000   0.00000
  24        7D+1        0.00000  -0.00433   0.00000   0.00000  -0.14544
  25        7D-1       -0.00433   0.00000  -0.00000  -0.14544   0.00000
  26        7D+2       -0.02270   0.00000   0.00000   0.20278   0.00000
  27        7D-2        0.00000  -0.02270   0.00000   0.00000   0.20278
  28 2   H  1S          0.02165   0.00000  -0.00413   0.00881   0.00000
  29        2S          0.05455   0.00000  -0.09901   0.62539   0.00000
  30        3S          2.53075   0.00000  -3.01530   4.84804   0.00000
  31        4S          5.38381   0.00000  -3.06166  -0.47388   0.00000
  32        5PX         0.00000   0.00129   0.00000   0.00000  -0.00077
  33        5PY        -0.00195   0.00000   0.00229   0.00320   0.00000
  34        5PZ        -0.00268   0.00000   0.00002   0.00197   0.00000
  35        6PX         0.00000  -0.01386   0.00000   0.00000  -0.01091
  36        6PY         0.00545   0.00000  -0.00441  -0.02300   0.00000
  37        6PZ         0.02034   0.00000   0.00948  -0.00140   0.00000
  38        7PX         0.00000   0.16557   0.00000   0.00000   0.14254
  39        7PY        -0.27429   0.00000   0.41401  -0.79658   0.00000
  40        7PZ        -0.26653   0.00000   0.05914  -0.39993   0.00000
  41 3   H  1S         -0.01082   0.01875  -0.00413  -0.00441   0.00763
  42        2S         -0.02727   0.04724  -0.09901  -0.31269   0.54160
  43        3S         -1.26538   2.19170  -3.01530  -2.42402   4.19853
  44        4S         -2.69191   4.66252  -3.06166   0.23694  -0.41039
  45        5PX         0.00140  -0.00114   0.00198  -0.00172   0.00221
  46        5PY         0.00048   0.00140  -0.00114   0.00022  -0.00172
  47        5PZ         0.00134  -0.00232   0.00002  -0.00099   0.00171
  48        6PX        -0.00836   0.00063  -0.00382   0.00523  -0.01998
  49        6PY        -0.00903  -0.00836   0.00221  -0.01393   0.00523
  50        6PZ        -0.01017   0.01762   0.00948   0.00070  -0.00121
  51        7PX         0.19047  -0.16433   0.35854   0.40665  -0.56180
  52        7PY         0.05560   0.19047  -0.20700  -0.09224   0.40665
  53        7PZ         0.13326  -0.23082   0.05914   0.19997  -0.34635
  54 4   H  1S         -0.01082  -0.01875  -0.00413  -0.00441  -0.00763
  55        2S         -0.02727  -0.04724  -0.09901  -0.31269  -0.54160
  56        3S         -1.26538  -2.19170  -3.01530  -2.42402  -4.19853
  57        4S         -2.69191  -4.66252  -3.06166   0.23694   0.41039
  58        5PX        -0.00140  -0.00114  -0.00198   0.00172   0.00221
  59        5PY         0.00048  -0.00140  -0.00114   0.00022   0.00172
  60        5PZ         0.00134   0.00232   0.00002  -0.00099  -0.00171
  61        6PX         0.00836   0.00063   0.00382  -0.00523  -0.01998
  62        6PY        -0.00903   0.00836   0.00221  -0.01393  -0.00523
  63        6PZ        -0.01017  -0.01762   0.00948   0.00070   0.00121
  64        7PX        -0.19047  -0.16433  -0.35854  -0.40665  -0.56180
  65        7PY         0.05560  -0.19047  -0.20700  -0.09224  -0.40665
  66        7PZ         0.13326   0.23082   0.05914   0.19997   0.34635
  67 5   C  1S         -0.00000   0.00000  -0.02283   0.00000   0.00000
  68        2S         -0.00000   0.00000  -0.04212   0.00000   0.00000
  69        2PX         0.00000   0.02947   0.00000   0.00000  -0.07301
  70        2PY         0.02947   0.00000  -0.00000  -0.07301   0.00000
  71        2PZ         0.00000   0.00000  -0.00400   0.00000   0.00000
  72        3S          0.00000   0.00000   0.18398  -0.00000   0.00000
  73        3PX         0.00000   0.04368   0.00000   0.00000  -0.20878
  74        3PY         0.04368   0.00000  -0.00000  -0.20878   0.00000
  75        3PZ         0.00000   0.00000   0.00227   0.00000   0.00000
  76        4S         -0.00000   0.00000  -3.31216  -0.00000   0.00000
  77        4PX         0.00000  -0.73608   0.00000   0.00000  -2.76712
  78        4PY        -0.73608   0.00000  -0.00000  -2.76712   0.00000
  79        4PZ         0.00000   0.00000   0.57802   0.00000   0.00000
  80        5S         -0.00000   0.00000 -39.91449   0.00000   0.00000
  81        5PX         0.00000  -3.93809   0.00000   0.00000  -0.79319
  82        5PY        -3.93809   0.00000   0.00000  -0.79319   0.00000
  83        5PZ        -0.00000   0.00000  -6.44443   0.00000   0.00000
  84        6D 0       -0.00000   0.00000  -0.00442  -0.00000   0.00000
  85        6D+1        0.00000  -0.00285   0.00000   0.00000  -0.01426
  86        6D-1       -0.00285   0.00000  -0.00000  -0.01426   0.00000
  87        6D+2        0.00441   0.00000  -0.00000   0.00812   0.00000
  88        6D-2        0.00000   0.00441   0.00000   0.00000   0.00812
  89        7D 0       -0.00000   0.00000  -0.00747   0.00000   0.00000
  90        7D+1        0.00000   0.00433   0.00000   0.00000   0.14544
  91        7D-1        0.00433   0.00000   0.00000   0.14544   0.00000
  92        7D+2        0.02270   0.00000  -0.00000  -0.20278   0.00000
  93        7D-2        0.00000   0.02270   0.00000   0.00000  -0.20278
  94 6   H  1S          0.01082   0.01875   0.00413   0.00441   0.00763
  95        2S          0.02727   0.04724   0.09901   0.31269   0.54160
  96        3S          1.26538   2.19170   3.01530   2.42402   4.19853
  97        4S          2.69191   4.66252   3.06166  -0.23694  -0.41039
  98        5PX        -0.00140  -0.00114  -0.00198   0.00172   0.00221
  99        5PY         0.00048  -0.00140  -0.00114   0.00022   0.00172
 100        5PZ         0.00134   0.00232   0.00002  -0.00099  -0.00171
 101        6PX         0.00836   0.00063   0.00382  -0.00523  -0.01998
 102        6PY        -0.00903   0.00836   0.00221  -0.01393  -0.00523
 103        6PZ        -0.01017  -0.01762   0.00948   0.00070   0.00121
 104        7PX        -0.19047  -0.16433  -0.35854  -0.40665  -0.56180
 105        7PY         0.05560  -0.19047  -0.20700  -0.09224  -0.40665
 106        7PZ         0.13326   0.23082   0.05914   0.19997   0.34635
 107 7   H  1S         -0.02165   0.00000   0.00413  -0.00881   0.00000
 108        2S         -0.05455   0.00000   0.09901  -0.62539   0.00000
 109        3S         -2.53075   0.00000   3.01530  -4.84804   0.00000
 110        4S         -5.38381   0.00000   3.06166   0.47388   0.00000
 111        5PX         0.00000   0.00129   0.00000   0.00000  -0.00077
 112        5PY        -0.00195   0.00000   0.00229   0.00320   0.00000
 113        5PZ        -0.00268   0.00000   0.00002   0.00197   0.00000
 114        6PX         0.00000  -0.01386   0.00000   0.00000  -0.01091
 115        6PY         0.00545   0.00000  -0.00441  -0.02300   0.00000
 116        6PZ         0.02034   0.00000   0.00948  -0.00140   0.00000
 117        7PX         0.00000   0.16557   0.00000   0.00000   0.14254
 118        7PY        -0.27429   0.00000   0.41401  -0.79658   0.00000
 119        7PZ        -0.26653   0.00000   0.05914  -0.39993   0.00000
 120 8   H  1S          0.01082  -0.01875   0.00413   0.00441  -0.00763
 121        2S          0.02727  -0.04724   0.09901   0.31269  -0.54160
 122        3S          1.26538  -2.19170   3.01530   2.42402  -4.19853
 123        4S          2.69191  -4.66252   3.06166  -0.23694   0.41039
 124        5PX         0.00140  -0.00114   0.00198  -0.00172   0.00221
 125        5PY         0.00048   0.00140  -0.00114   0.00022  -0.00172
 126        5PZ         0.00134  -0.00232   0.00002  -0.00099   0.00171
 127        6PX        -0.00836   0.00063  -0.00382   0.00523  -0.01998
 128        6PY        -0.00903  -0.00836   0.00221  -0.01393   0.00523
 129        6PZ        -0.01017   0.01762   0.00948   0.00070  -0.00121
 130        7PX         0.19047  -0.16433   0.35854   0.40665  -0.56180
 131        7PY         0.05560   0.19047  -0.20700  -0.09224   0.40665
 132        7PZ         0.13326  -0.23082   0.05914   0.19997  -0.34635
                          26        27        28        29        30
                        (EG)--V   (EG)--V  (A2U)--V  (A1G)--V  (A2U)--V
     Eigenvalues --     0.30974   0.30974   0.36391   0.38711   0.42604
   1 1   C  1S          0.00000   0.00000  -0.02968  -0.03214  -0.02988
   2        2S          0.00000   0.00000  -0.04717  -0.05392  -0.04789
   3        2PX        -0.08451   0.00000   0.00000   0.00000   0.00000
   4        2PY         0.00000  -0.08451   0.00000  -0.00000   0.00000
   5        2PZ         0.00000  -0.00000   0.04410   0.03655  -0.11725
   6        3S          0.00000   0.00000  -0.06018  -0.01920  -0.07276
   7        3PX        -0.16416   0.00000   0.00000   0.00000   0.00000
   8        3PY         0.00000  -0.16416   0.00000  -0.00000   0.00000
   9        3PZ         0.00000  -0.00000   0.10700   0.04312  -0.24484
  10        4S          0.00000  -0.00000   7.15368   7.49758   6.25518
  11        4PX        -2.66193   0.00000   0.00000   0.00000   0.00000
  12        4PY         0.00000  -2.66193  -0.00000   0.00000  -0.00000
  13        4PZ         0.00000  -0.00000   2.29906   1.74607  -2.47926
  14        5S          0.00000  -0.00000  37.17147  13.53850   8.53470
  15        5PX         1.18698   0.00000   0.00000   0.00000   0.00000
  16        5PY         0.00000   1.18698  -0.00000   0.00000  -0.00000
  17        5PZ         0.00000  -0.00000  -7.03352   0.34755   1.24896
  18        6D 0        0.00000  -0.00000   0.00775   0.01944  -0.03061
  19        6D+1       -0.00413   0.00000   0.00000   0.00000   0.00000
  20        6D-1        0.00000  -0.00413  -0.00000  -0.00000  -0.00000
  21        6D+2        0.00000  -0.01407   0.00000  -0.00000   0.00000
  22        6D-2       -0.01407   0.00000   0.00000   0.00000   0.00000
  23        7D 0        0.00000   0.00000  -0.15057  -0.14280   0.17013
  24        7D+1       -0.06203   0.00000   0.00000   0.00000   0.00000
  25        7D-1        0.00000  -0.06203  -0.00000   0.00000  -0.00000
  26        7D+2        0.00000   0.14908   0.00000  -0.00000  -0.00000
  27        7D-2        0.14908   0.00000   0.00000   0.00000   0.00000
  28 2   H  1S          0.00000  -0.00654  -0.01027  -0.00782   0.02402
  29        2S          0.00000   0.45508  -0.37087  -0.36702  -0.03522
  30        3S          0.00000   3.67288  -5.13862  -5.67220  -1.79446
  31        4S          0.00000  -3.43352  -1.35137  -2.17081  -1.92962
  32        5PX        -0.00210   0.00000   0.00000   0.00000   0.00000
  33        5PY         0.00000   0.00294  -0.00344  -0.00381   0.00156
  34        5PZ         0.00000   0.00117  -0.00105   0.00044  -0.00421
  35        6PX        -0.01166   0.00000   0.00000   0.00000   0.00000
  36        6PY         0.00000  -0.00339   0.00384   0.00688  -0.00582
  37        6PZ         0.00000  -0.00382   0.01194   0.00424  -0.00787
  38        7PX         0.08346   0.00000   0.00000   0.00000   0.00000
  39        7PY         0.00000  -0.54675   0.68071   0.60922   0.33572
  40        7PZ         0.00000  -0.26150   0.10705   0.24583   0.08417
  41 3   H  1S         -0.00567   0.00327  -0.01027  -0.00782   0.02402
  42        2S          0.39411  -0.22754  -0.37087  -0.36702  -0.03522
  43        3S          3.18081  -1.83644  -5.13862  -5.67220  -1.79446
  44        4S         -2.97351   1.71676  -1.35137  -2.17081  -1.92962
  45        5PX         0.00168  -0.00218  -0.00298  -0.00330   0.00135
  46        5PY        -0.00218  -0.00084   0.00172   0.00190  -0.00078
  47        5PZ         0.00102  -0.00059  -0.00105   0.00044  -0.00421
  48        6PX        -0.00546  -0.00358   0.00333   0.00596  -0.00504
  49        6PY        -0.00358  -0.00960  -0.00192  -0.00344   0.00291
  50        6PZ        -0.00331   0.00191   0.01194   0.00424  -0.00787
[...]
     12 -0.111145D-02  0.455073D-02 -0.453294D-01  0.149480D-01 -0.224379D-01
     13 -0.111145D-02 -0.111145D-02  0.149480D-01 -0.453294D-01 -0.224379D-01
     14 -0.615537D-02 -0.615537D-02  0.534069D-02 -0.446143D-02 -0.865432D-02
     15  0.949073D-03 -0.615537D-02 -0.446143D-02 -0.446143D-02  0.206837D-01
     16 -0.615537D-02  0.949073D-03 -0.446143D-02  0.534069D-02 -0.865432D-02
     17  0.582214D-02  0.414473D-03  0.227324D-03  0.334730D-02 -0.446143D-02
     18  0.414473D-03  0.582214D-02  0.227324D-03  0.227324D-03  0.534069D-02
     19  0.582214D-02  0.582214D-02  0.334730D-02  0.227324D-03 -0.446143D-02
     20 -0.387124D-02  0.445992D-02  0.662103D-02 -0.574292D-02 -0.243250D-02
     21  0.000000D+00 -0.328255D-02  0.749913D-02 -0.749913D-02  0.000000D+00
     22  0.387124D-02  0.588686D-03  0.574292D-02 -0.662103D-02  0.243250D-02
     23 -0.445992D-02  0.387124D-02 -0.662103D-02  0.878104D-03 -0.804238D-02
     24 -0.588686D-03 -0.387124D-02 -0.574292D-02 -0.878104D-03 -0.560987D-02
     25  0.328255D-02  0.000000D+00 -0.749913D-02  0.000000D+00 -0.317737D-02
     26 -0.328255D-02  0.328255D-02  0.000000D+00  0.749913D-02  0.317737D-02
     27  0.588686D-03 -0.445992D-02  0.878104D-03  0.574292D-02  0.560987D-02
     28  0.445992D-02 -0.588686D-03 -0.878104D-03  0.662103D-02  0.804238D-02
               11            12            13            14            15 
     11  0.585752D-01
     12 -0.453294D-01  0.116210D+00
     13 -0.453294D-01 -0.224379D-01  0.116210D+00
     14 -0.446143D-02 -0.865433D-02  0.206837D-01  0.116210D+00
     15  0.534069D-02 -0.865432D-02 -0.865432D-02 -0.224379D-01  0.116210D+00
     16 -0.446143D-02  0.206837D-01 -0.865433D-02 -0.224379D-01 -0.224379D-01
     17  0.227324D-03  0.534069D-02 -0.446143D-02 -0.453294D-01 -0.453294D-01
     18  0.334730D-02 -0.446143D-02 -0.446143D-02 -0.453294D-01  0.149480D-01
     19  0.227324D-03 -0.446143D-02  0.534069D-02  0.149480D-01 -0.453294D-01
     20 -0.878104D-03  0.804238D-02 -0.560987D-02 -0.243250D-02 -0.560987D-02
     21  0.000000D+00  0.317737D-02 -0.317737D-02  0.317737D-02  0.000000D+00
     22  0.878104D-03  0.560987D-02 -0.804238D-02 -0.804238D-02  0.560987D-02
     23  0.574292D-02  0.243250D-02  0.560987D-02  0.243250D-02 -0.804238D-02
     24  0.662103D-02 -0.243250D-02  0.804238D-02  0.804238D-02 -0.243250D-02
     25  0.749913D-02  0.000000D+00  0.317737D-02 -0.317737D-02  0.317737D-02
     26 -0.749913D-02 -0.317737D-02  0.000000D+00  0.000000D+00 -0.317737D-02
     27 -0.662103D-02 -0.804238D-02  0.243250D-02  0.560987D-02  0.243250D-02
     28 -0.574292D-02 -0.560987D-02 -0.243250D-02 -0.560987D-02  0.804238D-02
               16            17            18            19            20 
     16  0.116210D+00
     17  0.149480D-01  0.585752D-01
     18 -0.453294D-01  0.108904D-01  0.585752D-01
     19 -0.453294D-01  0.108904D-01  0.108904D-01  0.585752D-01
     20  0.804238D-02 -0.574292D-02  0.662103D-02 -0.878104D-03  0.168234D-01
     21 -0.317737D-02  0.749913D-02  0.000000D+00 -0.749913D-02  0.415561D-02
     22  0.243250D-02  0.878104D-03 -0.662103D-02  0.574292D-02  0.467793D-02
     23  0.560987D-02 -0.662103D-02  0.574292D-02  0.878104D-03  0.467793D-02
     24 -0.560987D-02  0.662103D-02 -0.878104D-03 -0.574292D-02 -0.798986D-02
     25  0.000000D+00  0.000000D+00 -0.749913D-02  0.749913D-02 -0.746753D-02
     26  0.317737D-02 -0.749913D-02  0.749913D-02  0.000000D+00  0.415561D-02
     27 -0.804238D-02  0.574292D-02  0.878104D-03 -0.662103D-02 -0.851218D-02
     28 -0.243250D-02 -0.878104D-03 -0.574292D-02  0.662103D-02 -0.798986D-02
               21            22            23            24            25 
     21  0.157787D-01
     22  0.415561D-02  0.168234D-01
     23 -0.746753D-02 -0.798986D-02  0.168234D-01
     24  0.415561D-02 -0.851218D-02  0.467793D-02  0.168234D-01
     25 -0.746753D-02  0.415561D-02  0.415561D-02  0.415561D-02  0.157787D-01
     26 -0.746753D-02 -0.746753D-02  0.415561D-02 -0.746753D-02 -0.746753D-02
     27  0.415561D-02 -0.798986D-02 -0.798986D-02  0.467793D-02 -0.746753D-02
     28 -0.746753D-02  0.467793D-02 -0.851218D-02 -0.798986D-02  0.415561D-02
               26            27            28 
     26  0.157787D-01
     27  0.415561D-02  0.168234D-01
     28  0.415561D-02  0.467793D-02  0.168234D-01
 Leave Link  716 at Fri Sep  6 16:45:06 2024, MaxMem=  1073741824 cpu:               0.1 elap:               0.0
 (Enter /Users/asuyarger/Applications/G16/g16/l103.exe)

 GradGradGradGradGradGradGradGradGradGradGradGradGradGradGradGradGradGrad
 Berny optimization.
 Red2BG is reusing G-inverse.
 Internal  Forces:  Max     0.000000937 RMS     0.000000501
 Search for a local minimum.
 Step number   1 out of a maximum of    2
 All quantities printed in internal units (Hartrees-Bohrs-Radians)
 Second derivative matrix not updated -- analytic derivatives used.
 ITU=  0
     Eigenvalues ---    0.00253   0.05132   0.05132   0.05397   0.05397
     Eigenvalues ---    0.13694   0.13694   0.13936   0.14276   0.20125
     Eigenvalues ---    0.20125   0.33060   0.35754   0.35754   0.36049
     Eigenvalues ---    0.36049   0.37159   0.37469
 Angle between quadratic step and forces=  25.75 degrees.
 Linear search not attempted -- first point.
 Iteration  1 RMS(Cart)=  0.00000273 RMS(Int)=  0.00000000
 Iteration  2 RMS(Cart)=  0.00000000 RMS(Int)=  0.00000000
 ITry= 1 IFail=0 DXMaxC= 5.12D-06 DCOld= 1.00D+10 DXMaxT= 3.00D-01 DXLimC= 3.00D+00 Rises=F
 ClnCor:  largest displacement from symmetrization is 4.87D-09 for atom     3.
 Variable       Old X    -DE/DX   Delta X   Delta X   Delta X     New X
                                 (Linear)    (Quad)   (Total)
    R1        2.04768  -0.00000   0.00000  -0.00000  -0.00000   2.04768
    R2        2.04768  -0.00000   0.00000  -0.00000  -0.00000   2.04768
    R3        2.04768  -0.00000   0.00000  -0.00000  -0.00000   2.04768
    R4        2.88183  -0.00000   0.00000  -0.00000  -0.00000   2.88183
    R5        2.04768  -0.00000   0.00000  -0.00000  -0.00000   2.04768
    R6        2.04768  -0.00000   0.00000  -0.00000  -0.00000   2.04768
    R7        2.04768  -0.00000   0.00000  -0.00000  -0.00000   2.04768
    A1        1.87968   0.00000   0.00000   0.00000   0.00000   1.87968
    A2        1.87968   0.00000   0.00000   0.00000   0.00000   1.87968
    A3        1.94066  -0.00000   0.00000  -0.00000  -0.00000   1.94066
    A4        1.87968   0.00000   0.00000   0.00000   0.00000   1.87968
    A5        1.94066  -0.00000   0.00000  -0.00000  -0.00000   1.94066
    A6        1.94066  -0.00000   0.00000  -0.00000  -0.00000   1.94066
    A7        1.94066  -0.00000   0.00000  -0.00000  -0.00000   1.94066
    A8        1.94066  -0.00000   0.00000  -0.00000  -0.00000   1.94066
    A9        1.94066  -0.00000   0.00000  -0.00000  -0.00000   1.94066
   A10        1.87968   0.00000   0.00000   0.00000   0.00000   1.87968
   A11        1.87968   0.00000   0.00000   0.00000   0.00000   1.87968
   A12        1.87968   0.00000   0.00000   0.00000   0.00000   1.87968
    D1        1.04720  -0.00000   0.00000   0.00000   0.00000   1.04720
    D2        3.14159  -0.00000   0.00000   0.00000   0.00000   3.14159
    D3       -1.04720   0.00000   0.00000   0.00000   0.00000  -1.04720
    D4       -1.04720  -0.00000   0.00000   0.00000   0.00000  -1.04720
    D5        1.04720   0.00000   0.00000   0.00000   0.00000   1.04720
    D6        3.14159   0.00000   0.00000   0.00000   0.00000   3.14159
    D7        3.14159  -0.00000   0.00000   0.00000  -0.00000   3.14159
    D8       -1.04720   0.00000   0.00000   0.00000   0.00000  -1.04720
    D9        1.04720   0.00000   0.00000   0.00000   0.00000   1.04720
         Item               Value     Threshold  Converged?
 Maximum Force            0.000001     0.000015     YES
 RMS     Force            0.000001     0.000010     YES
 Maximum Displacement     0.000005     0.000060     YES
 RMS     Displacement     0.000003     0.000040     YES
 Predicted change in Energy=-1.213990D-11
 Optimization completed.
    -- Stationary point found.
                           ----------------------------
                           !   Optimized Parameters   !
                           ! (Angstroms and Degrees)  !
 --------------------------                            --------------------------
 ! Name  Definition              Value          Derivative Info.                !
 --------------------------------------------------------------------------------
 ! R1    R(1,2)                  1.0836         -DE/DX =    0.0                 !
 ! R2    R(1,3)                  1.0836         -DE/DX =    0.0                 !
 ! R3    R(1,4)                  1.0836         -DE/DX =    0.0                 !
 ! R4    R(1,5)                  1.525          -DE/DX =    0.0                 !
 ! R5    R(5,6)                  1.0836         -DE/DX =    0.0                 !
 ! R6    R(5,7)                  1.0836         -DE/DX =    0.0                 !
 ! R7    R(5,8)                  1.0836         -DE/DX =    0.0                 !
 ! A1    A(2,1,3)              107.6975         -DE/DX =    0.0                 !
 ! A2    A(2,1,4)              107.6975         -DE/DX =    0.0                 !
 ! A3    A(2,1,5)              111.1915         -DE/DX =    0.0                 !
 ! A4    A(3,1,4)              107.6975         -DE/DX =    0.0                 !
 ! A5    A(3,1,5)              111.1915         -DE/DX =    0.0                 !
 ! A6    A(4,1,5)              111.1915         -DE/DX =    0.0                 !
 ! A7    A(1,5,6)              111.1915         -DE/DX =    0.0                 !
 ! A8    A(1,5,7)              111.1915         -DE/DX =    0.0                 !
 ! A9    A(1,5,8)              111.1915         -DE/DX =    0.0                 !
 ! A10   A(6,5,7)              107.6975         -DE/DX =    0.0                 !
 ! A11   A(6,5,8)              107.6975         -DE/DX =    0.0                 !
 ! A12   A(7,5,8)              107.6975         -DE/DX =    0.0                 !
 ! D1    D(2,1,5,6)             60.0            -DE/DX =    0.0                 !
 ! D2    D(2,1,5,7)            180.0            -DE/DX =    0.0                 !
 ! D3    D(2,1,5,8)            -60.0            -DE/DX =    0.0                 !
 ! D4    D(3,1,5,6)            -60.0            -DE/DX =    0.0                 !
 ! D5    D(3,1,5,7)             60.0            -DE/DX =    0.0                 !
 ! D6    D(3,1,5,8)            180.0            -DE/DX =    0.0                 !
 ! D7    D(4,1,5,6)            180.0            -DE/DX =    0.0                 !
 ! D8    D(4,1,5,7)            -60.0            -DE/DX =    0.0                 !
 ! D9    D(4,1,5,8)             60.0            -DE/DX =    0.0                 !
 --------------------------------------------------------------------------------
 GradGradGradGradGradGradGradGradGradGradGradGradGradGradGradGradGradGrad

 Leave Link  103 at Fri Sep  6 16:45:06 2024, MaxMem=  1073741824 cpu:               0.1 elap:               0.0
 (Enter /Users/asuyarger/Applications/G16/g16/l9999.exe)
 Dipole is zero, so no output in dipole orientation.

 ----------------------------------------------------------------------

 Electric dipole moment (input orientation):
 (Debye = 10**-18 statcoulomb cm , SI units = C m)
                  (au)            (Debye)         (10**-30 SI)
   Tot        0.000000D+00      0.000000D+00      0.000000D+00
   x          0.000000D+00      0.000000D+00      0.000000D+00
   y          0.000000D+00      0.000000D+00      0.000000D+00
   z          0.000000D+00      0.000000D+00      0.000000D+00

 Dipole polarizability, Alpha (input orientation).
 (esu units = cm**3 , SI units = C**2 m**2 J**-1)
 Alpha(0;0):
               (au)            (10**-24 esu)      (10**-40 SI)
   iso        0.267812D+02      0.396857D+01      0.441562D+01
   aniso      0.331519D+01      0.491260D+00      0.546601D+00
   xx         0.260445D+02      0.385940D+01      0.429416D+01
   yx         0.520936D+00      0.771948D-01      0.858907D-01
   yy         0.264128D+02      0.391398D+01      0.435489D+01
   zx         0.902295D+00      0.133706D+00      0.148768D+00
   zy         0.127601D+01      0.189084D+00      0.210385D+00
   zz         0.278863D+02      0.413232D+01      0.459783D+01

 ----------------------------------------------------------------------
 1\1\GINC-JEFFSMACSTUDIO\Freq\RHF\6-311++G(2d,3p)\C2H6\ROOT\06-Sep-2024
 \0\\#P Geom=AllCheck Guess=TCheck SCRF=Check GenChk RHF/6-311++G(2d,3p
 ) Freq\\Ethane DFT B3LPY aug-cc-pVTZ Opt Freq - Full - NBO\\0,1\C,-0.0
 788744763,0.2838244267,0.0061232334\H,0.2667310921,-0.7427842594,-0.02
 19993078\H,0.2669094457,0.7726545595,-0.8970035911\H,-1.1619726838,0.2
 676576501,-0.0220971259\C,0.4294681029,1.0027106433,1.2512814166\H,1.5
 125663105,1.0188774199,1.2795017759\H,0.0838625346,2.0293193294,1.2794
 039578\H,0.083684181,0.5138805105,2.1544082411\\Version=EM64M-G16RevA.
 03\State=1-A1G\HF=-79.2567054\RMSD=1.517e-09\RMSF=5.604e-07\ZeroPoint=
 0.0786653\Thermal=0.0820672\Dipole=0.,0.,0.\DipoleDeriv=0.1489163,-0.0
 104445,-0.0180906,-0.0104445,0.1415315,-0.0255833,-0.0180906,-0.025583
 2,0.11199,0.0281908,0.0796088,-0.007707,0.0598172,-0.1851579,-0.044416
 3,-0.0191307,-0.0120929,0.0228212,0.0281635,-0.0464865,0.065128,-0.046
 4888,-0.0046781,0.0920659,0.0422704,0.0597466,-0.1576312,-0.2052705,-0
 .0226778,-0.0393304,-0.002884,0.0483046,-0.0220664,-0.0050491,-0.02207
 04,0.02282,0.1489163,-0.0104445,-0.0180906,-0.0104445,0.1415315,-0.025
 5833,-0.0180906,-0.0255832,0.11199,-0.2052705,-0.0226778,-0.0393304,-0
 .002884,0.0483046,-0.0220664,-0.0050491,-0.0220704,0.02282,0.0281908,0
 .0796088,-0.007707,0.0598172,-0.1851579,-0.0444163,-0.0191307,-0.01209
 29,0.0228212,0.0281635,-0.0464865,0.065128,-0.0464888,-0.0046781,0.092
 0659,0.0422704,0.0597466,-0.1576312\Polar=26.0445137,0.520936,26.41284
 23,0.9022955,1.2760052,27.8862716\PolarDeriv=7.2341566,0.4978975,-3.28
 57681,0.8649942,-0.2734707,-3.6026126,-0.0219184,-2.9181932,5.6048804,
 -0.2734707,0.6703251,-5.093974,-0.0353606,-0.2734706,-0.2300301,-3.235
 0379,-4.5741583,1.1123503,0.4123909,-1.4829258,2.2612313,-0.2827365,0.
 3514203,0.9276478,-1.5823401,1.6422493,-8.6835989,0.1198711,-1.1780123
 ,-1.1618574,-0.0297406,0.1038373,-0.2301503,0.6039525,-0.6744635,-0.45
 47129,0.4131333,0.4968254,0.9568533,-1.42613,-0.4018789,2.2332279,0.76
 56042,0.7667655,1.1709583,-0.4019333,-1.7097804,3.1571722,-1.3856623,-
 0.3858164,-1.658,1.4804124,2.0927339,-7.2103637,-9.4122562,-0.7077478,
 -1.1577157,-1.2272945,-0.2137833,-1.4046914,-0.1572089,-0.8577077,-0.7
 421748,0.0178203,-0.2340399,0.4875697,-0.2738381,0.0177372,0.0132378,-
 0.8372426,0.3447107,-0.4550699,-7.2341566,-0.4978975,3.2857681,-0.8649
 942,0.2734707,3.6026126,0.0219184,2.9181932,-5.6048804,0.2734707,-0.67
 03251,5.093974,0.0353606,0.2734706,0.2300301,3.2350379,4.5741583,-1.11
 23503,9.4122562,0.7077478,1.1577157,1.2272945,0.2137833,1.4046914,0.15
 72089,0.8577077,0.7421748,-0.0178203,0.2340399,-0.4875697,0.2738381,-0
 .0177372,-0.0132378,0.8372426,-0.3447107,0.4550699,-0.4123909,1.482925
 8,-2.2612313,0.2827365,-0.3514203,-0.9276478,1.5823401,-1.6422493,8.68
 35989,-0.1198711,1.1780123,1.1618574,0.0297406,-0.1038373,0.2301503,-0
 .6039525,0.6744635,0.4547129,-0.4131333,-0.4968254,-0.9568533,1.42613,
 0.4018789,-2.2332279,-0.7656042,-0.7667655,-1.1709583,0.4019333,1.7097
 804,-3.1571722,1.3856623,0.3858164,1.658,-1.4804124,-2.0927339,7.21036
 37\HyperPolar=0.,0.,0.,0.,0.,0.,0.,0.,0.,0.\Quadrupole=0.1254675,0.062
 737,-0.1882045,-0.0887212,-0.153671,-0.2173179\PG=D03D [C3(C1.C1),3SGD
 (H2)]\NImag=0\\0.61540193,-0.01466885,0.60503030,-0.02540741,-0.035930
 57,0.56354053,-0.08714245,0.08546089,0.00197215,0.08769359,0.08409501,
 -0.30318619,-0.00409474,-0.09372875,0.33012068,0.00118376,-0.00186400,
 -0.05728894,0.00051632,0.00615566,0.05864804,-0.08717206,-0.04103338,0
 .07503477,0.00453457,0.00524670,-0.01174645,0.08772679,-0.04103353,-0.
 11615499,0.10607661,-0.01280267,-0.01551360,0.02912614,0.04732386,0.12
 115374,0.07345729,0.10384615,-0.24429052,-0.00132823,0.00053451,0.0016
 0665,-0.08095491,-0.11444470,0.26758177,-0.33246770,-0.00259070,-0.004
 54280,-0.01091119,0.00092708,0.00028788,-0.01091774,-0.00021211,0.0009
 4536,0.36209670,-0.00122466,-0.05786026,0.00049519,0.03630421,0.002244
 43,-0.00003135,-0.01825955,-0.00006440,-0.00107583,0.00323151,0.055716
 86,-0.00217693,0.00049491,-0.05728962,-0.00012874,0.00026088,-0.000705
 62,0.03137566,-0.00137159,0.00160976,0.00565946,0.00253814,0.05864874,
 -0.10861897,-0.02058303,-0.03565116,0.00512731,0.00580491,0.01161995,0
 .00512997,0.00716406,0.01084245,-0.01025802,-0.01955391,-0.03386794,0.
 61540193,-0.02058303,-0.12317223,-0.05041703,-0.01411424,-0.01511845,-
 0.03181445,0.00716183,0.01019186,0.01532818,0.00036747,0.00026996,0.00
 035682,-0.01466885,0.60503030,-0.03565116,-0.05041703,-0.18138981,0.00
 012259,0.00071717,0.00067814,-0.01216247,-0.01719938,-0.02463484,0.000
 63433,0.00035276,0.00067506,-0.02540741,-0.03593057,0.56354053,-0.0102
 5802,0.00036747,0.00063433,0.00061341,-0.00080766,0.00001250,0.0006136
 7,0.00041448,-0.00069320,0.00123087,-0.00133006,-0.00230352,-0.3324677
 0,-0.00259070,-0.00454280,0.36209670,-0.01955391,0.00026996,0.00035276
 ,-0.00005888,0.00030733,0.00106007,0.00089134,0.00055846,0.00051028,-0
 .00133006,-0.00117238,-0.00384926,-0.00122466,-0.05786026,0.00049519,0
 .00323151,0.05571686,-0.03386794,0.00035682,0.00067506,0.00099527,0.00
 036496,0.00146507,0.00044674,0.00120514,0.00121369,-0.00230352,-0.0038
 4926,-0.00561708,-0.00217693,0.00049491,-0.05728962,0.00565946,0.00253
 814,0.05864874,0.00512731,-0.01411424,0.00012259,-0.00006949,-0.001789
 59,-0.00286129,0.00015424,0.00072903,0.00071193,0.00061341,-0.00005888
 ,0.00099527,-0.08714245,0.08546089,0.00197215,-0.01091119,0.03630421,-
 0.00012874,0.08769359,0.00580491,-0.01511845,0.00071717,-0.00178959,0.
 00012805,-0.00345488,0.00025230,0.00101775,-0.00048356,-0.00080766,0.0
 0030733,0.00036496,0.08409501,-0.30318619,-0.00409474,0.00092708,0.002
 24443,0.00026088,-0.09372875,0.33012068,0.01161995,-0.03181445,0.00067
 814,-0.00286129,-0.00345488,-0.00561716,0.00098734,0.00082280,0.001213
 82,0.00001250,0.00106007,0.00146507,0.00118376,-0.00186400,-0.05728894
 ,0.00028788,-0.00003135,-0.00070562,0.00051632,0.00615566,0.05864804,0
 .00512997,0.00716183,-0.01216247,0.00015424,0.00025230,0.00098734,-0.0
 0006944,-0.00158311,-0.00298069,0.00061367,0.00089134,0.00044674,-0.08
 717206,-0.04103338,0.07503477,-0.01091774,-0.01825955,0.03137566,0.004
 53457,0.00524670,-0.01174645,0.08772679,0.00716406,0.01019186,-0.01719
 938,0.00072903,0.00101775,0.00082280,-0.00158311,-0.00118883,-0.004215
 03,0.00041448,0.00055846,0.00120514,-0.04103353,-0.11615499,0.10607661
 ,-0.00021211,-0.00006440,-0.00137159,-0.01280267,-0.01551360,0.0291261
 4,0.04732386,0.12115374,0.01084245,0.01532818,-0.02463484,0.00071193,-
 0.00048356,0.00121382,-0.00298069,-0.00421503,-0.00430033,-0.00069320,
 0.00051028,0.00121369,0.07345729,0.10384615,-0.24429052,0.00094536,-0.
 00107583,0.00160976,-0.00132823,0.00053451,0.00160665,-0.08095491,-0.1
 1444470,0.26758177\\0.00000035,0.00000049,0.00000086,0.00000010,-0.000
 00087,-0.00000035,0.00000010,0.00000014,-0.00000093,-0.00000085,-0.000
 00020,-0.00000035,-0.00000035,-0.00000049,-0.00000086,0.00000085,0.000
 00020,0.00000035,-0.00000010,0.00000087,0.00000035,-0.00000010,-0.0000
 0014,0.00000093\\\@


 IT IS A QUALITY OF REVOLUTIONS NOT TO GO BY OLD LINES OR OLD LAWS,
 BUT TO BREAK UP BOTH, AND MAKE NEW ONES.
                                              -- A. LINCOLN (1848)
 Job cpu time:       0 days  0 hours  0 minutes  4.4 seconds.
 Elapsed time:       0 days  0 hours  0 minutes  3.8 seconds.
 File lengths (MBytes):  RWF=     15 Int=      0 D2E=      0 Chk=      3 Scr=      1
 Normal termination of Gaussian 16 at Fri Sep  6 16:45:06 2024.
