 Entering Gaussian System, Link 0=g16
 Input=/Users/asuyarger/Downloads/C2H6_DFT_B3LPY_6311pp2d3p_Opt_Freq_Full_NBO_Raman.gjf
 Output=/Users/asuyarger/Downloads/C2H6_DFT_B3LPY_6311pp2d3p_Opt_Freq_Full_NBO_Raman.log
 Initial command:
 /Users/asuyarger/Applications/G16/g16/l1.exe "/Users/asuyarger/Applications/G16/scratch/Gau-92991.inp" -scrdir="/Users/asuyarger/Applications/G16/scratch/"
 Entering Link 1 = /Users/asuyarger/Applications/G16/g16/l1.exe PID=     92992.
  
 Copyright (c) 1988,1990,1992,1993,1995,1998,2003,2009,2016,
            Gaussian, Inc.  All Rights Reserved.
  
 This is part of the Gaussian(R) 16 program.  It is based on
 the Gaussian(R) 09 system (copyright 2009, Gaussian, Inc.),
 the Gaussian(R) 03 system (copyright 2003, Gaussian, Inc.),
 the Gaussian(R) 98 system (copyright 1998, Gaussian, Inc.),
 the Gaussian(R) 94 system (copyright 1995, Gaussian, Inc.),
 the Gaussian 92(TM) system (copyright 1992, Gaussian, Inc.),
 the Gaussian 90(TM) system (copyright 1990, Gaussian, Inc.),
 the Gaussian 88(TM) system (copyright 1988, Gaussian, Inc.),
 the Gaussian 86(TM) system (copyright 1986, Carnegie Mellon
 University), and the Gaussian 82(TM) system (copyright 1983,
 Carnegie Mellon University). Gaussian is a federally registered
 trademark of Gaussian, Inc.
  
 This software contains proprietary and confidential information,
 including trade secrets, belonging to Gaussian, Inc.
  
 This software is provided under written license and may be
 used, copied, transmitted, or stored only in accord with that
 written license.
  
 The following legend is applicable only to US Government
 contracts under FAR:
  
                    RESTRICTED RIGHTS LEGEND
  
 Use, reproduction and disclosure by the US Government is
 subject to restrictions as set forth in subparagraphs (a)
 and (c) of the Commercial Computer Software - Restricted
 Rights clause in FAR 52.227-19.
  
 Gaussian, Inc.
 340 Quinnipiac St., Bldg. 40, Wallingford CT 06492
  
  
 ---------------------------------------------------------------
 Warning -- This program may not be used in any manner that
 competes with the business of Gaussian, Inc. or will provide
 assistance to any competitor of Gaussian, Inc.  The licensee
 of this program is prohibited from giving any competitor of
 Gaussian, Inc. access to this program.  By using this program,
 the user acknowledges that Gaussian, Inc. is engaged in the
 business of creating and licensing software in the field of
 computational chemistry and represents and warrants to the
 licensee that it is not a competitor of Gaussian, Inc. and that
 it will not use this program in any manner prohibited above.
 ---------------------------------------------------------------
  

 Cite this work as:
 Gaussian 16, Revision A.03,
 M. J. Frisch, G. W. Trucks, H. B. Schlegel, G. E. Scuseria, 
 M. A. Robb, J. R. Cheeseman, G. Scalmani, V. Barone, 
 G. A. Petersson, H. Nakatsuji, X. Li, M. Caricato, A. V. Marenich, 
 J. Bloino, B. G. Janesko, R. Gomperts, B. Mennucci, H. P. Hratchian, 
 J. V. Ortiz, A. F. Izmaylov, J. L. Sonnenberg, D. Williams-Young, 
 F. Ding, F. Lipparini, F. Egidi, J. Goings, B. Peng, A. Petrone, 
 T. Henderson, D. Ranasinghe, V. G. Zakrzewski, J. Gao, N. Rega, 
 G. Zheng, W. Liang, M. Hada, M. Ehara, K. Toyota, R. Fukuda, 
 J. Hasegawa, M. Ishida, T. Nakajima, Y. Honda, O. Kitao, H. Nakai, 
 T. Vreven, K. Throssell, J. A. Montgomery, Jr., J. E. Peralta, 
 F. Ogliaro, M. J. Bearpark, J. J. Heyd, E. N. Brothers, K. N. Kudin, 
 V. N. Staroverov, T. A. Keith, R. Kobayashi, J. Normand, 
 K. Raghavachari, A. P. Rendell, J. C. Burant, S. S. Iyengar, 
 J. Tomasi, M. Cossi, J. M. Millam, M. Klene, C. Adamo, R. Cammi, 
 J. W. Ochterski, R. L. Martin, K. Morokuma, O. Farkas, 
 J. B. Foresman, and D. J. Fox, Gaussian, Inc., Wallingford CT, 2016.
 
 ******************************************
 Gaussian 16:  EM64M-G16RevA.03 25-Dec-2016
                 6-Sep-2024 
 ******************************************
 %nprocshared=8
 Will use up to    8 processors via shared memory.
 %mem=8GB
 %chk=C2H6_DFT_B3LPY_6311pp2d3p_Opt_Freq_Full_NBO_Raman.chk
 ----------------------------------------------------------------------
 #p opt=tight freq=raman b3lyp/6-311g(2d,3p) guess=save pop=(hirshfeld,
 full,nbo) geom=connectivity polar
 ----------------------------------------------------------------------
 1/7=10,18=20,19=15,26=3,38=1,57=2/1,3;
 2/9=110,12=2,17=6,18=5,40=1/2;
 3/5=4,6=6,7=502,11=2,25=1,30=1,71=1,74=-5/1,2,3;
 4//1;
 5/5=2,38=5,98=1/2;
 6/7=3,28=1,40=1,79=1/1,7;
 7//1,2,3,16;
 1/7=10,18=20,19=15,26=3/3(2);
 2/9=110/2;
 99//99;
 2/9=110/2;
 3/5=4,6=6,7=502,11=2,25=1,30=1,71=1,74=-5/1,2,3;
 4/5=5,16=3,69=1/1;
 5/5=2,38=5,98=1/2;
 7//1,2,3,16;
 1/7=10,18=20,19=15,26=3/3(-5);
 2/9=110/2;
 6/7=3,19=2,28=1,40=1,79=1/1,7;
 99/9=1/99;
 Leave Link    1 at Fri Sep  6 16:44:03 2024, MaxMem=  1073741824 cpu:               0.2 elap:               0.0
 (Enter /Users/asuyarger/Applications/G16/g16/l101.exe)
 --------------------------------------------------
 Ethane DFT B3LPY aug-cc-pVTZ Opt Freq - Full - NBO
 --------------------------------------------------
 Symbolic Z-matrix:
 Charge =  0 Multiplicity = 1
 C                    -0.08137   0.28029  0. 
 H                     0.2752   -0.72855   0.00005 
 H                     0.27538   0.78463  -0.87365 
 H                    -1.15137   0.28039  -0.00005 
 C                     0.43197   1.00625   1.2574 
 H                     1.50197   1.00615   1.25745 
 H                     0.07539   2.01508   1.25736 
 H                     0.07522   0.5019    2.13106 
 
 ITRead=  0  0  0  0  0  0  0  0
 MicOpt= -1 -1 -1 -1 -1 -1 -1 -1
 NAtoms=      8 NQM=        8 NQMF=       0 NMMI=      0 NMMIF=      0
                NMic=       0 NMicF=      0.
                    Isotopes and Nuclear Properties:
 (Nuclear quadrupole moments (NQMom) in fm**2, nuclear magnetic moments (NMagM)
  in nuclear magnetons)

  Atom         1           2           3           4           5           6           7           8
 IAtWgt=          12           1           1           1          12           1           1           1
 AtmWgt=  12.0000000   1.0078250   1.0078250   1.0078250  12.0000000   1.0078250   1.0078250   1.0078250
 NucSpn=           0           1           1           1           0           1           1           1
 AtZEff=  -0.0000000  -0.0000000  -0.0000000  -0.0000000  -0.0000000  -0.0000000  -0.0000000  -0.0000000
 NQMom=    0.0000000   0.0000000   0.0000000   0.0000000   0.0000000   0.0000000   0.0000000   0.0000000
 NMagM=    0.0000000   2.7928460   2.7928460   2.7928460   0.0000000   2.7928460   2.7928460   2.7928460
 AtZNuc=   6.0000000   1.0000000   1.0000000   1.0000000   6.0000000   1.0000000   1.0000000   1.0000000
 Leave Link  101 at Fri Sep  6 16:44:03 2024, MaxMem=  1073741824 cpu:               1.2 elap:               0.2
 (Enter /Users/asuyarger/Applications/G16/g16/l103.exe)

 GradGradGradGradGradGradGradGradGradGradGradGradGradGradGradGradGradGrad
 Berny optimization.
 Initialization pass.
                           ----------------------------
                           !    Initial Parameters    !
                           ! (Angstroms and Degrees)  !
 --------------------------                            --------------------------
 ! Name  Definition              Value          Derivative Info.                !
 --------------------------------------------------------------------------------
 ! R1    R(1,2)                  1.07           estimate D2E/DX2                !
 ! R2    R(1,3)                  1.07           estimate D2E/DX2                !
 ! R3    R(1,4)                  1.07           estimate D2E/DX2                !
 ! R4    R(1,5)                  1.54           estimate D2E/DX2                !
 ! R5    R(5,6)                  1.07           estimate D2E/DX2                !
 ! R6    R(5,7)                  1.07           estimate D2E/DX2                !
 ! R7    R(5,8)                  1.07           estimate D2E/DX2                !
 ! A1    A(2,1,3)              109.4712         estimate D2E/DX2                !
 ! A2    A(2,1,4)              109.4712         estimate D2E/DX2                !
 ! A3    A(2,1,5)              109.4712         estimate D2E/DX2                !
 ! A4    A(3,1,4)              109.4712         estimate D2E/DX2                !
 ! A5    A(3,1,5)              109.4712         estimate D2E/DX2                !
 ! A6    A(4,1,5)              109.4712         estimate D2E/DX2                !
 ! A7    A(1,5,6)              109.4712         estimate D2E/DX2                !
 ! A8    A(1,5,7)              109.4712         estimate D2E/DX2                !
 ! A9    A(1,5,8)              109.4712         estimate D2E/DX2                !
 ! A10   A(6,5,7)              109.4712         estimate D2E/DX2                !
 ! A11   A(6,5,8)              109.4712         estimate D2E/DX2                !
 ! A12   A(7,5,8)              109.4712         estimate D2E/DX2                !
 ! D1    D(2,1,5,6)             60.0            estimate D2E/DX2                !
 ! D2    D(2,1,5,7)            180.0            estimate D2E/DX2                !
 ! D3    D(2,1,5,8)            -60.0            estimate D2E/DX2                !
 ! D4    D(3,1,5,6)            -60.0            estimate D2E/DX2                !
 ! D5    D(3,1,5,7)             60.0            estimate D2E/DX2                !
 ! D6    D(3,1,5,8)            180.0            estimate D2E/DX2                !
 ! D7    D(4,1,5,6)            180.0            estimate D2E/DX2                !
 ! D8    D(4,1,5,7)            -60.0            estimate D2E/DX2                !
 ! D9    D(4,1,5,8)             60.0            estimate D2E/DX2                !
 --------------------------------------------------------------------------------
 Trust Radius=3.00D-01 FncErr=1.00D-07 GrdErr=1.00D-06 EigMax=2.50D+02 EigMin=1.00D-04
 Number of steps in this run=     38 maximum allowed number of steps=    100.
 GradGradGradGradGradGradGradGradGradGradGradGradGradGradGradGradGradGrad

 Leave Link  103 at Fri Sep  6 16:44:03 2024, MaxMem=  1073741824 cpu:               0.0 elap:               0.0
 (Enter /Users/asuyarger/Applications/G16/g16/l202.exe)
                          Input orientation:                          
 ---------------------------------------------------------------------
 Center     Atomic      Atomic             Coordinates (Angstroms)
 Number     Number       Type             X           Y           Z
 ---------------------------------------------------------------------
      1          6           0       -0.081374    0.280289   -0.000000
      2          1           0        0.275200   -0.728549    0.000049
      3          1           0        0.275378    0.784631   -0.873651
      4          1           0       -1.151374    0.280387   -0.000049
      5          6           0        0.431968    1.006246    1.257405
      6          1           0        1.501968    1.006148    1.257453
      7          1           0        0.075393    2.015084    1.257356
      8          1           0        0.075215    0.501904    2.131056
 ---------------------------------------------------------------------
                    Distance matrix (angstroms):
                    1          2          3          4          5
     1  C    0.000000
     2  H    1.070000   0.000000
     3  H    1.070000   1.747303   0.000000
     4  H    1.070000   1.747303   1.747303   0.000000
     5  C    1.540000   2.148263   2.148263   2.148263   0.000000
     6  H    2.148263   2.468846   2.468846   3.024610   1.070000
     7  H    2.148263   3.024610   2.468846   2.468846   1.070000
     8  H    2.148263   2.468846   3.024610   2.468846   1.070000
                    6          7          8
     6  H    0.000000
     7  H    1.747303   0.000000
     8  H    1.747303   1.747303   0.000000
 Stoichiometry    C2H6
 Framework group  D3D[C3(C.C),3SGD(H2)]
 Deg. of freedom     3
 Full point group                 D3D     NOp  12
 Largest Abelian subgroup         C2H     NOp   4
 Largest concise Abelian subgroup C2H     NOp   4
                         Standard orientation:                         
 ---------------------------------------------------------------------
 Center     Atomic      Atomic             Coordinates (Angstroms)
 Number     Number       Type             X           Y           Z
 ---------------------------------------------------------------------
      1          6           0       -0.000000   -0.000000    0.770000
      2          1           0       -0.000000    1.008806    1.126667
      3          1           0        0.873651   -0.504403    1.126667
      4          1           0       -0.873651   -0.504403    1.126667
      5          6           0        0.000000    0.000000   -0.770000
      6          1           0        0.873651    0.504403   -1.126667
      7          1           0       -0.000000   -1.008806   -1.126667
      8          1           0       -0.873651    0.504403   -1.126667
 ---------------------------------------------------------------------
 Rotational constants (GHZ):          82.1231828          20.2293845          20.2293845
 Leave Link  202 at Fri Sep  6 16:44:03 2024, MaxMem=  1073741824 cpu:               0.0 elap:               0.0
 (Enter /Users/asuyarger/Applications/G16/g16/l301.exe)
 Standard basis: 6-311G(2d,3p) (5D, 7F)
 Ernie: Thresh=  0.10000D-02 Tol=  0.10000D-05 Strict=F.
 There are    39 symmetry adapted cartesian basis functions of AG  symmetry.
 There are    22 symmetry adapted cartesian basis functions of BG  symmetry.
 There are    22 symmetry adapted cartesian basis functions of AU  symmetry.
 There are    39 symmetry adapted cartesian basis functions of BU  symmetry.
 There are    37 symmetry adapted basis functions of AG  symmetry.
 There are    22 symmetry adapted basis functions of BG  symmetry.
 There are    22 symmetry adapted basis functions of AU  symmetry.
 There are    37 symmetry adapted basis functions of BU  symmetry.
   118 basis functions,   160 primitive gaussians,   122 cartesian basis functions
     9 alpha electrons        9 beta electrons
       nuclear repulsion energy        42.6703217105 Hartrees.
 IExCor=  402 DFT=T Ex+Corr=B3LYP ExCW=0 ScaHFX=  0.200000
 ScaDFX=  0.800000  0.720000  1.000000  0.810000 ScalE2=  1.000000  1.000000
 IRadAn=      5 IRanWt=     -1 IRanGd=            0 ICorTp=0 IEmpDi=  4
 NAtoms=    8 NActive=    8 NUniq=    2 SFac= 4.00D+00 NAtFMM=   60 NAOKFM=F Big=F
 Integral buffers will be    131072 words long.
 Raffenetti 2 integral format.
 Two-electron integral symmetry is turned on.
 Leave Link  301 at Fri Sep  6 16:44:03 2024, MaxMem=  1073741824 cpu:               0.1 elap:               0.0
 (Enter /Users/asuyarger/Applications/G16/g16/l302.exe)
 NPDir=0 NMtPBC=     1 NCelOv=     1 NCel=       1 NClECP=     1 NCelD=      1
         NCelK=      1 NCelE2=     1 NClLst=     1 CellRange=     0.0.
 One-electron integrals computed using PRISM.
 One-electron integral symmetry used in STVInt
 NBasis=   118 RedAO= T EigKep=  9.02D-04  NBF=    37    22    22    37
 NBsUse=   118 1.00D-06 EigRej= -1.00D+00 NBFU=    37    22    22    37
 Precomputing XC quadrature grid using
 IXCGrd= 4 IRadAn=           5 IRanWt=          -1 IRanGd=           0 AccXCQ= 0.00D+00.
 Generated NRdTot=       0 NPtTot=           0 NUsed=           0 NTot=          32
 NSgBfM=   122   122   122   122   122 MxSgAt=     8 MxSgA2=     8.
 Leave Link  302 at Fri Sep  6 16:44:04 2024, MaxMem=  1073741824 cpu:               0.7 elap:               0.1
 (Enter /Users/asuyarger/Applications/G16/g16/l303.exe)
 DipDrv:  MaxL=1.
 Leave Link  303 at Fri Sep  6 16:44:04 2024, MaxMem=  1073741824 cpu:               0.1 elap:               0.0
 (Enter /Users/asuyarger/Applications/G16/g16/l401.exe)
 ExpMin= 1.03D-01 ExpMax= 4.56D+03 ExpMxC= 6.82D+02 IAcc=3 IRadAn=         5 AccDes= 0.00D+00
 Harris functional with IExCor=  402 and IRadAn=       5 diagonalized for initial guess.
 HarFok:  IExCor=  402 AccDes= 0.00D+00 IRadAn=         5 IDoV= 1 UseB2=F ITyADJ=14
 ICtDFT=  3500011 ScaDFX=  1.000000  1.000000  1.000000  1.000000
 FoFCou: FMM=F IPFlag=           0 FMFlag=      100000 FMFlg1=           0
         NFxFlg=           0 DoJE=T BraDBF=F KetDBF=T FulRan=T
         wScrn=  0.000000 ICntrl=       500 IOpCl=  0 I1Cent=   200000004 NGrid=           0
         NMat0=    1 NMatS0=      1 NMatT0=    0 NMatD0=    1 NMtDS0=    0 NMtDT0=    0
 Petite list used in FoFCou.
 Harris En= -79.9278939114746    
 JPrj=0 DoOrth=F DoCkMO=F.
 Initial guess orbital symmetries:
       Occupied  (A1G) (A2U) (A1G) (A2U) (EU) (EU) (A1G) (EG) (EG)
       Virtual   (A1G) (A2U) (EU) (EU) (EG) (EG) (A2U) (EU) (EU)
                 (EG) (EG) (A1G) (EU) (EU) (A2U) (A1G) (EG) (EG)
                 (EU) (EU) (A2U) (A1U) (EG) (EG) (A2G) (A1G) (EU)
                 (EU) (A2U) (EG) (EG) (A1G) (A2U) (EU) (EU) (EG)
                 (EG) (A2U) (A1G) (EU) (EU) (EG) (EG) (EG) (EG)
                 (A2U) (EU) (EU) (A1G) (A1U) (A2G) (EG) (EG) (EU)
                 (EU) (A1G) (A2U) (EU) (EU) (EG) (EG) (A1G) (EU)
                 (EU) (A2U) (EG) (EG) (EG) (EG) (EU) (EU) (A2U)
                 (A1G) (A1G) (EU) (EU) (EG) (EG) (A1G) (EG) (EG)
                 (A2U) (EU) (EU) (EU) (EU) (EG) (EG) (A2U) (A1G)
                 (A1U) (EU) (EU) (EG) (EG) (A2G) (A2U) (EU) (EU)
                 (A2U) (EG) (EG) (A1G) (EG) (EG) (EU) (EU) (A2U)
                 (A1G)
 The electronic state of the initial guess is 1-A1G.
 Leave Link  401 at Fri Sep  6 16:44:04 2024, MaxMem=  1073741824 cpu:               1.0 elap:               0.2
 (Enter /Users/asuyarger/Applications/G16/g16/l502.exe)
 Keep R1 ints in memory in symmetry-blocked form, NReq=32237925.
 FoFCou: FMM=F IPFlag=           0 FMFlag=           0 FMFlg1=           0
         NFxFlg=           0 DoJE=F BraDBF=F KetDBF=F FulRan=T
         wScrn=  0.000000 ICntrl=       600 IOpCl=  0 I1Cent=           0 NGrid=           0
         NMat0=    1 NMatS0=   7021 NMatT0=    0 NMatD0=    1 NMtDS0=    0 NMtDT0=    0
 Petite list used in FoFCou.
 Closed shell SCF:
 Using DIIS extrapolation, IDIIS=  1040.
 NGot=  1073741824 LenX=  1067494031 LenY=  1067478706
 Requested convergence on RMS density matrix=1.00D-08 within 128 cycles.
 Requested convergence on MAX density matrix=1.00D-06.
 Requested convergence on             energy=1.00D-06.
 No special actions if energy rises.
 Integral accuracy reduced to 1.0D-05 until final iterations.

 Cycle   1  Pass 0  IDiag  1:
 E= -79.7116451192182    
 DIIS: error= 4.42D-02 at cycle   1 NSaved=   1.
 NSaved= 1 IEnMin= 1 EnMin= -79.7116451192182     IErMin= 1 ErrMin= 4.42D-02
 ErrMax= 4.42D-02  0.00D+00 EMaxC= 1.00D-01 BMatC= 1.46D-01 BMatP= 1.46D-01
 IDIUse=3 WtCom= 5.58D-01 WtEn= 4.42D-01
 Coeff-Com:  0.100D+01
 Coeff-En:   0.100D+01
 Coeff:      0.100D+01
 Gap=     0.309 Goal=   None    Shift=    0.000
 GapD=    0.309 DampG=1.000 DampE=0.500 DampFc=0.5000 IDamp=-1.
 Damping current iteration by 5.00D-01
 RMSDP=5.12D-03 MaxDP=1.33D-01              OVMax= 2.03D-01

 Cycle   2  Pass 0  IDiag  1:
 E= -79.7740430750235     Delta-E=       -0.062397955805 Rises=F Damp=T
 DIIS: error= 1.12D-02 at cycle   2 NSaved=   2.
 NSaved= 2 IEnMin= 2 EnMin= -79.7740430750235     IErMin= 2 ErrMin= 1.12D-02
 ErrMax= 1.12D-02  0.00D+00 EMaxC= 1.00D-01 BMatC= 5.06D-03 BMatP= 1.46D-01
 IDIUse=3 WtCom= 8.88D-01 WtEn= 1.12D-01
 Coeff-Com:  0.777D-01 0.922D+00
 Coeff-En:   0.166D+00 0.834D+00
 Coeff:      0.875D-01 0.912D+00
 Gap=     0.387 Goal=   None    Shift=    0.000
 RMSDP=9.76D-04 MaxDP=2.11D-02 DE=-6.24D-02 OVMax= 1.24D-01

 Cycle   3  Pass 0  IDiag  1:
 E= -79.8576589219271     Delta-E=       -0.083615846904 Rises=F Damp=F
 DIIS: error= 3.62D-03 at cycle   3 NSaved=   3.
 NSaved= 3 IEnMin= 3 EnMin= -79.8576589219271     IErMin= 3 ErrMin= 3.62D-03
 ErrMax= 3.62D-03  0.00D+00 EMaxC= 1.00D-01 BMatC= 4.86D-04 BMatP= 5.06D-03
 IDIUse=3 WtCom= 9.64D-01 WtEn= 3.62D-02
 Coeff-Com: -0.950D-02 0.185D+00 0.825D+00
 Coeff-En:   0.000D+00 0.000D+00 0.100D+01
 Coeff:     -0.916D-02 0.178D+00 0.831D+00
 Gap=     0.393 Goal=   None    Shift=    0.000
 RMSDP=1.11D-04 MaxDP=1.67D-03 DE=-8.36D-02 OVMax= 7.01D-03

 Cycle   4  Pass 0  IDiag  1:
 E= -79.8581077703068     Delta-E=       -0.000448848380 Rises=F Damp=F
 DIIS: error= 6.69D-04 at cycle   4 NSaved=   4.
 NSaved= 4 IEnMin= 4 EnMin= -79.8581077703068     IErMin= 4 ErrMin= 6.69D-04
 ErrMax= 6.69D-04  0.00D+00 EMaxC= 1.00D-01 BMatC= 2.10D-05 BMatP= 4.86D-04
 IDIUse=3 WtCom= 9.93D-01 WtEn= 6.69D-03
 Coeff-Com: -0.440D-02 0.485D-02 0.192D+00 0.808D+00
 Coeff-En:   0.000D+00 0.000D+00 0.000D+00 0.100D+01
 Coeff:     -0.437D-02 0.481D-02 0.190D+00 0.809D+00
 Gap=     0.393 Goal=   None    Shift=    0.000
 RMSDP=1.98D-05 MaxDP=3.33D-04 DE=-4.49D-04 OVMax= 1.56D-03

 Cycle   5  Pass 0  IDiag  1:
 E= -79.8581268803756     Delta-E=       -0.000019110069 Rises=F Damp=F
 DIIS: error= 3.77D-05 at cycle   5 NSaved=   5.
 NSaved= 5 IEnMin= 5 EnMin= -79.8581268803756     IErMin= 5 ErrMin= 3.77D-05
 ErrMax= 3.77D-05  0.00D+00 EMaxC= 1.00D-01 BMatC= 7.21D-08 BMatP= 2.10D-05
 IDIUse=1 WtCom= 1.00D+00 WtEn= 0.00D+00
 Coeff-Com:  0.559D-03-0.140D-02-0.905D-03 0.185D-01 0.983D+00
 Coeff:      0.559D-03-0.140D-02-0.905D-03 0.185D-01 0.983D+00
 Gap=     0.393 Goal=   None    Shift=    0.000
 RMSDP=2.43D-06 MaxDP=4.56D-05 DE=-1.91D-05 OVMax= 1.05D-04

 Initial convergence to 1.0D-05 achieved.  Increase integral accuracy.
 Cycle   6  Pass 1  IDiag  1:
 E= -79.8581285057739     Delta-E=       -0.000001625398 Rises=F Damp=F
 DIIS: error= 1.13D-06 at cycle   1 NSaved=   1.
 NSaved= 1 IEnMin= 1 EnMin= -79.8581285057739     IErMin= 1 ErrMin= 1.13D-06
 ErrMax= 1.13D-06  0.00D+00 EMaxC= 1.00D-01 BMatC= 6.50D-11 BMatP= 6.50D-11
 IDIUse=1 WtCom= 1.00D+00 WtEn= 0.00D+00
 Coeff-Com:  0.100D+01
 Coeff:      0.100D+01
 Gap=     0.393 Goal=   None    Shift=    0.000
 RMSDP=2.43D-06 MaxDP=4.56D-05 DE=-1.63D-06 OVMax= 3.91D-06

 Cycle   7  Pass 1  IDiag  1:
 E= -79.8581285058073     Delta-E=       -0.000000000033 Rises=F Damp=F
 DIIS: error= 9.44D-07 at cycle   2 NSaved=   2.
 NSaved= 2 IEnMin= 2 EnMin= -79.8581285058073     IErMin= 2 ErrMin= 9.44D-07
 ErrMax= 9.44D-07  0.00D+00 EMaxC= 1.00D-01 BMatC= 3.87D-11 BMatP= 6.50D-11
 IDIUse=1 WtCom= 1.00D+00 WtEn= 0.00D+00
 Coeff-Com:  0.421D+00 0.579D+00
 Coeff:      0.421D+00 0.579D+00
 Gap=     0.393 Goal=   None    Shift=    0.000
 RMSDP=4.65D-08 MaxDP=1.32D-06 DE=-3.34D-11 OVMax= 2.00D-06

 Cycle   8  Pass 1  IDiag  1:
 E= -79.8581285058424     Delta-E=       -0.000000000035 Rises=F Damp=F
 DIIS: error= 2.40D-07 at cycle   3 NSaved=   3.
 NSaved= 3 IEnMin= 3 EnMin= -79.8581285058424     IErMin= 3 ErrMin= 2.40D-07
 ErrMax= 2.40D-07  0.00D+00 EMaxC= 1.00D-01 BMatC= 3.05D-12 BMatP= 3.87D-11
 IDIUse=1 WtCom= 1.00D+00 WtEn= 0.00D+00
 Coeff-Com: -0.873D-02 0.212D+00 0.797D+00
 Coeff:     -0.873D-02 0.212D+00 0.797D+00
 Gap=     0.393 Goal=   None    Shift=    0.000
 RMSDP=9.56D-09 MaxDP=2.55D-07 DE=-3.51D-11 OVMax= 4.95D-07

 SCF Done:  E(RB3LYP) =  -79.8581285058     A.U. after    8 cycles
            NFock=  8  Conv=0.96D-08     -V/T= 2.0033
 KE= 7.959749451344D+01 PE=-2.697475946304D+02 EE= 6.762164990058D+01
 Leave Link  502 at Fri Sep  6 16:44:04 2024, MaxMem=  1073741824 cpu:               3.4 elap:               0.5
 (Enter /Users/asuyarger/Applications/G16/g16/l601.exe)
 Copying SCF densities to generalized density rwf, IOpCl= 0 IROHF=0.

 **********************************************************************

            Population analysis using the SCF density.

 **********************************************************************

 Orbital symmetries:
       Occupied  (A1G) (A2U) (A1G) (A2U) (EU) (EU) (A1G) (EG) (EG)
       Virtual   (A1G) (A2U) (EU) (EU) (EG) (EG) (A2U) (EG) (EG)
                 (EU) (EU) (A1G) (EU) (EU) (A2U) (A1G) (EG) (EG)
                 (EU) (EU) (A1U) (A2U) (EG) (EG) (A2G) (A1G) (A2U)
                 (EU) (EU) (EG) (EG) (A1G) (EG) (EG) (EU) (EU)
                 (A2U) (A2U) (A1G) (EU) (EU) (EG) (EG) (EG) (EG)
                 (A2U) (EU) (EU) (A1G) (A1U) (A2G) (EG) (EG) (EU)
                 (EU) (A1G) (A2U) (EU) (EU) (EG) (EG) (EU) (EU)
                 (EG) (EG) (A1G) (A2U) (EG) (EG) (EU) (EU) (A2U)
                 (A1G) (A1G) (EU) (EU) (EG) (EG) (A1G) (EG) (EG)
                 (A2U) (EU) (EU) (EU) (EU) (EG) (EG) (A2U) (A1G)
                 (A1U) (EG) (EG) (EU) (EU) (A2G) (A2U) (EU) (EU)
                 (A2U) (EG) (EG) (A1G) (EG) (EG) (EU) (EU) (A2U)
                 (A1G)
 The electronic state is 1-A1G.
 Alpha  occ. eigenvalues --  -10.14827 -10.14805  -0.75750  -0.62009  -0.44331
 Alpha  occ. eigenvalues --   -0.44331  -0.35976  -0.35153  -0.35153
 Alpha virt. eigenvalues --    0.04149   0.07589   0.08946   0.08946   0.13073
 Alpha virt. eigenvalues --    0.13073   0.21413   0.22194   0.22194   0.23415
 Alpha virt. eigenvalues --    0.23415   0.24432   0.34648   0.34648   0.37553
 Alpha virt. eigenvalues --    0.41229   0.45700   0.45700   0.46279   0.46279
 Alpha virt. eigenvalues --    0.46625   0.52385   0.54741   0.54741   0.57874
 Alpha virt. eigenvalues --    0.64108   0.66382   0.68447   0.68447   0.74897
 Alpha virt. eigenvalues --    0.74897   0.81521   0.83975   0.83975   0.86033
 Alpha virt. eigenvalues --    0.86033   0.87430   0.88183   0.95127   0.97318
 Alpha virt. eigenvalues --    0.97318   1.06447   1.06447   1.22905   1.22905
 Alpha virt. eigenvalues --    1.30313   1.31997   1.31997   1.39043   1.78531
 Alpha virt. eigenvalues --    1.81079   1.84853   1.84853   1.89853   1.89853
 Alpha virt. eigenvalues --    1.89875   2.11525   2.31788   2.31788   2.33489
 Alpha virt. eigenvalues --    2.33489   2.44363   2.44363   2.47315   2.47315
 Alpha virt. eigenvalues --    2.48629   2.51751   2.91421   2.91421   2.92885
 Alpha virt. eigenvalues --    2.92885   2.92939   2.97902   3.31642   3.36248
 Alpha virt. eigenvalues --    3.36248   3.44702   3.44702   3.46523   3.52658
 Alpha virt. eigenvalues --    3.52658   3.54404   3.57026   3.57026   4.21730
 Alpha virt. eigenvalues --    4.21730   4.25874   4.25874   4.43283   8.28113
 Alpha virt. eigenvalues --    8.29496   8.30919   8.30919   8.31069   8.31069
 Alpha virt. eigenvalues --    8.31286   8.40463   8.44706   8.44706   8.48347
 Alpha virt. eigenvalues --    8.53611   8.53611   8.61177   8.70002   8.70002
 Alpha virt. eigenvalues --    8.72134   8.72134  23.98678  24.15408
     Molecular Orbital Coefficients:
                           1         2         3         4         5
                       (A1G)--O  (A2U)--O  (A1G)--O  (A2U)--O   (EU)--O
     Eigenvalues --   -10.14827 -10.14805  -0.75750  -0.62009  -0.44331
   1 1   C  1S          0.39806   0.39806  -0.08148  -0.07231   0.00000
   2        2S          0.32730   0.32748  -0.12615  -0.11287   0.00000
   3        2PX         0.00000   0.00000   0.00000   0.00000   0.14794
   4        2PY         0.00000  -0.00000  -0.00000   0.00000   0.00000
   5        2PZ        -0.00043   0.00010  -0.02377   0.05819   0.00000
   6        3S          0.01568   0.01390   0.32627   0.29922   0.00000
   7        3PX         0.00000   0.00000   0.00000   0.00000   0.20469
   8        3PY        -0.00000   0.00000   0.00000  -0.00000   0.00000
   9        3PZ         0.00136   0.00118  -0.04154   0.07856   0.00000
  10        4S          0.01075  -0.00231   0.12728   0.16089   0.00000
  11        4PX         0.00000   0.00000   0.00000   0.00000   0.09807
  12        4PY         0.00000   0.00000   0.00000  -0.00000   0.00000
  13        4PZ         0.00792   0.00625  -0.03601   0.02291   0.00000
  14        5D 0       -0.00013  -0.00028   0.00306  -0.00652   0.00000
  15        5D+1        0.00000   0.00000   0.00000   0.00000   0.00202
  16        5D-1       -0.00000   0.00000   0.00000  -0.00000   0.00000
  17        5D+2       -0.00000  -0.00000   0.00000   0.00000   0.00000
  18        5D-2        0.00000   0.00000   0.00000   0.00000  -0.00803
  19        6D 0       -0.00275  -0.00073   0.00850  -0.00445   0.00000
  20        6D+1        0.00000   0.00000   0.00000   0.00000  -0.01080
  21        6D-1        0.00000   0.00000   0.00000  -0.00000   0.00000
  22        6D+2       -0.00000  -0.00000  -0.00000   0.00000   0.00000
  23        6D-2        0.00000   0.00000   0.00000   0.00000   0.00012
  24 2   H  1S          0.00028   0.00025   0.05649   0.07624   0.00000
  25        2S         -0.00585  -0.00353   0.06956   0.09390   0.00000
  26        3S         -0.00150  -0.00063   0.01482   0.02671   0.00000
  27        4PX         0.00000   0.00000   0.00000   0.00000   0.00115
  28        4PY        -0.00023  -0.00019  -0.00177  -0.00255   0.00000
  29        4PZ        -0.00006  -0.00009  -0.00077  -0.00051   0.00000
  30        5PX         0.00000   0.00000   0.00000   0.00000   0.00697
  31        5PY         0.00200   0.00168  -0.00791  -0.00950   0.00000
  32        5PZ         0.00072   0.00064  -0.00424  -0.00112   0.00000
  33        6PX         0.00000   0.00000   0.00000   0.00000   0.00556
  34        6PY         0.00170   0.00105  -0.00805  -0.00723   0.00000
  35        6PZ        -0.00100  -0.00031   0.00258  -0.00024   0.00000
  36 3   H  1S          0.00028   0.00025   0.05649   0.07624   0.09887
  37        2S         -0.00585  -0.00353   0.06956   0.09390   0.14295
  38        3S         -0.00150  -0.00063   0.01482   0.02671   0.07854
  39        4PX        -0.00020  -0.00017  -0.00153  -0.00221  -0.00197
  40        4PY         0.00011   0.00010   0.00088   0.00127   0.00180
  41        4PZ        -0.00006  -0.00009  -0.00077  -0.00051  -0.00148
  42        5PX         0.00173   0.00146  -0.00685  -0.00823  -0.00374
  43        5PY        -0.00100  -0.00084   0.00395   0.00475   0.00618
  44        5PZ         0.00072   0.00064  -0.00424  -0.00112  -0.00482
  45        6PX         0.00147   0.00091  -0.00697  -0.00626  -0.00767
  46        6PY        -0.00085  -0.00053   0.00402   0.00361   0.00763
  47        6PZ        -0.00100  -0.00031   0.00258  -0.00024  -0.00459
  48 4   H  1S          0.00028   0.00025   0.05649   0.07624  -0.09887
  49        2S         -0.00585  -0.00353   0.06956   0.09390  -0.14295
  50        3S         -0.00150  -0.00063   0.01482   0.02671  -0.07854
  51        4PX         0.00020   0.00017   0.00153   0.00221  -0.00197
  52        4PY         0.00011   0.00010   0.00088   0.00127  -0.00180
  53        4PZ        -0.00006  -0.00009  -0.00077  -0.00051   0.00148
  54        5PX        -0.00173  -0.00146   0.00685   0.00823  -0.00374
  55        5PY        -0.00100  -0.00084   0.00395   0.00475  -0.00618
  56        5PZ         0.00072   0.00064  -0.00424  -0.00112   0.00482
  57        6PX        -0.00147  -0.00091   0.00697   0.00626  -0.00767
  58        6PY        -0.00085  -0.00053   0.00402   0.00361  -0.00763
  59        6PZ        -0.00100  -0.00031   0.00258  -0.00024   0.00459
  60 5   C  1S          0.39806  -0.39806  -0.08148   0.07231   0.00000
  61        2S          0.32730  -0.32748  -0.12615   0.11287   0.00000
  62        2PX         0.00000   0.00000   0.00000   0.00000   0.14794
  63        2PY        -0.00000  -0.00000   0.00000   0.00000   0.00000
  64        2PZ         0.00043   0.00010   0.02377   0.05819   0.00000
  65        3S          0.01568  -0.01390   0.32627  -0.29922   0.00000
  66        3PX         0.00000   0.00000   0.00000   0.00000   0.20469
  67        3PY         0.00000   0.00000  -0.00000  -0.00000   0.00000
  68        3PZ        -0.00136   0.00118   0.04154   0.07856   0.00000
  69        4S          0.01075   0.00231   0.12728  -0.16089   0.00000
  70        4PX         0.00000   0.00000   0.00000   0.00000   0.09807
  71        4PY        -0.00000   0.00000  -0.00000  -0.00000   0.00000
  72        4PZ        -0.00792   0.00625   0.03601   0.02291   0.00000
  73        5D 0       -0.00013   0.00028   0.00306   0.00652   0.00000
  74        5D+1        0.00000   0.00000   0.00000   0.00000  -0.00202
  75        5D-1       -0.00000  -0.00000   0.00000   0.00000   0.00000
  76        5D+2       -0.00000   0.00000   0.00000  -0.00000   0.00000
  77        5D-2        0.00000   0.00000   0.00000   0.00000   0.00803
  78        6D 0       -0.00275   0.00073   0.00850   0.00445   0.00000
  79        6D+1        0.00000   0.00000   0.00000   0.00000   0.01080
  80        6D-1        0.00000  -0.00000   0.00000   0.00000   0.00000
  81        6D+2       -0.00000   0.00000  -0.00000  -0.00000   0.00000
  82        6D-2        0.00000   0.00000   0.00000   0.00000  -0.00012
  83 6   H  1S          0.00028  -0.00025   0.05649  -0.07624   0.09887
  84        2S         -0.00585   0.00353   0.06956  -0.09390   0.14295
  85        3S         -0.00150   0.00063   0.01482  -0.02671   0.07854
  86        4PX        -0.00020   0.00017  -0.00153   0.00221  -0.00197
  87        4PY        -0.00011   0.00010  -0.00088   0.00127  -0.00180
  88        4PZ         0.00006  -0.00009   0.00077  -0.00051   0.00148
  89        5PX         0.00173  -0.00146  -0.00685   0.00823  -0.00374
  90        5PY         0.00100  -0.00084  -0.00395   0.00475  -0.00618
  91        5PZ        -0.00072   0.00064   0.00424  -0.00112   0.00482
  92        6PX         0.00147  -0.00091  -0.00697   0.00626  -0.00767
  93        6PY         0.00085  -0.00053  -0.00402   0.00361  -0.00763
  94        6PZ         0.00100  -0.00031  -0.00258  -0.00024   0.00459
  95 7   H  1S          0.00028  -0.00025   0.05649  -0.07624   0.00000
  96        2S         -0.00585   0.00353   0.06956  -0.09390   0.00000
  97        3S         -0.00150   0.00063   0.01482  -0.02671   0.00000
  98        4PX         0.00000   0.00000   0.00000   0.00000   0.00115
  99        4PY         0.00023  -0.00019   0.00177  -0.00255   0.00000
 100        4PZ         0.00006  -0.00009   0.00077  -0.00051   0.00000
 101        5PX         0.00000   0.00000   0.00000   0.00000   0.00697
 102        5PY        -0.00200   0.00168   0.00791  -0.00950   0.00000
 103        5PZ        -0.00072   0.00064   0.00424  -0.00112   0.00000
 104        6PX         0.00000   0.00000   0.00000   0.00000   0.00556
 105        6PY        -0.00170   0.00105   0.00805  -0.00723   0.00000
 106        6PZ         0.00100  -0.00031  -0.00258  -0.00024   0.00000
 107 8   H  1S          0.00028  -0.00025   0.05649  -0.07624  -0.09887
 108        2S         -0.00585   0.00353   0.06956  -0.09390  -0.14295
 109        3S         -0.00150   0.00063   0.01482  -0.02671  -0.07854
 110        4PX         0.00020  -0.00017   0.00153  -0.00221  -0.00197
 111        4PY        -0.00011   0.00010  -0.00088   0.00127   0.00180
 112        4PZ         0.00006  -0.00009   0.00077  -0.00051  -0.00148
 113        5PX        -0.00173   0.00146   0.00685  -0.00823  -0.00374
 114        5PY         0.00100  -0.00084  -0.00395   0.00475   0.00618
 115        5PZ        -0.00072   0.00064   0.00424  -0.00112  -0.00482
 116        6PX        -0.00147   0.00091   0.00697  -0.00626  -0.00767
 117        6PY         0.00085  -0.00053  -0.00402   0.00361   0.00763
 118        6PZ         0.00100  -0.00031  -0.00258  -0.00024  -0.00459
                           6         7         8         9        10
                        (EU)--O  (A1G)--O   (EG)--O   (EG)--O  (A1G)--V
     Eigenvalues --    -0.44331  -0.35976  -0.35153  -0.35153   0.04149
   1 1   C  1S          0.00000   0.00899   0.00000  -0.00000  -0.03594
   2        2S          0.00000   0.01438   0.00000  -0.00000  -0.05877
   3        2PX         0.00000   0.00000   0.14851   0.00000   0.00000
   4        2PY         0.14794   0.00000   0.00000   0.14851  -0.00000
   5        2PZ         0.00000   0.19036   0.00000  -0.00000   0.05200
   6        3S         -0.00000  -0.04226   0.00000   0.00000   0.12324
   7        3PX         0.00000   0.00000   0.20229   0.00000   0.00000
   8        3PY         0.20469  -0.00000   0.00000   0.20229  -0.00000
   9        3PZ        -0.00000   0.27813   0.00000  -0.00000   0.06400
  10        4S          0.00000  -0.04884   0.00000  -0.00000   2.64423
  11        4PX         0.00000   0.00000   0.12126   0.00000   0.00000
  12        4PY         0.09807  -0.00000   0.00000   0.12126  -0.00000
  13        4PZ        -0.00000   0.18961   0.00000   0.00000   0.73886
  14        5D 0       -0.00000  -0.01273   0.00000   0.00000   0.00841
  15        5D+1        0.00000   0.00000   0.01136   0.00000   0.00000
  16        5D-1        0.00202   0.00000   0.00000   0.01136   0.00000
  17        5D+2       -0.00803  -0.00000   0.00000  -0.01040  -0.00000
  18        5D-2        0.00000   0.00000  -0.01040   0.00000   0.00000
  19        6D 0        0.00000  -0.01485   0.00000   0.00000  -0.05562
  20        6D+1        0.00000   0.00000   0.01895   0.00000   0.00000
  21        6D-1       -0.01080  -0.00000   0.00000   0.01895  -0.00000
  22        6D+2        0.00012   0.00000   0.00000  -0.00713   0.00000
  23        6D-2        0.00000   0.00000  -0.00713   0.00000   0.00000
  24 2   H  1S          0.11417   0.04975   0.00000   0.13551   0.00876
  25        2S          0.16506   0.06944   0.00000   0.19475  -0.21094
  26        3S          0.09069   0.04551   0.00000   0.13847  -0.88300
  27        4PX         0.00000   0.00000   0.00117   0.00000   0.00000
  28        4PY        -0.00301  -0.00182   0.00000  -0.00349  -0.00302
  29        4PZ        -0.00171   0.00089   0.00000  -0.00132  -0.00061
  30        5PX         0.00000   0.00000   0.00687   0.00000   0.00000
  31        5PY        -0.00731  -0.00453   0.00000  -0.00708  -0.00353
  32        5PZ        -0.00557   0.00795   0.00000  -0.00546   0.00844
  33        6PX         0.00000   0.00000   0.00601   0.00000   0.00000
  34        6PY        -0.01208  -0.00426   0.00000  -0.00640   0.19990
  35        6PZ        -0.00530   0.00088   0.00000  -0.00509  -0.01498
  36 3   H  1S         -0.05709   0.04975   0.11736  -0.06776   0.00876
  37        2S         -0.08253   0.06944   0.16866  -0.09737  -0.21094
  38        3S         -0.04535   0.04551   0.11992  -0.06924  -0.88300
  39        4PX         0.00180  -0.00158  -0.00232   0.00202  -0.00262
  40        4PY         0.00011   0.00091   0.00202   0.00000   0.00151
  41        4PZ         0.00085   0.00089  -0.00114   0.00066  -0.00061
  42        5PX         0.00618  -0.00392  -0.00359   0.00604  -0.00306
  43        5PY         0.00340   0.00227   0.00604   0.00339   0.00177
  44        5PZ         0.00278   0.00795  -0.00472   0.00273   0.00844
  45        6PX         0.00763  -0.00369  -0.00330   0.00538   0.17311
  46        6PY         0.00115   0.00213   0.00538   0.00291  -0.09995
  47        6PZ         0.00265   0.00088  -0.00441   0.00255  -0.01498
  48 4   H  1S         -0.05709   0.04975  -0.11736  -0.06776   0.00876
  49        2S         -0.08253   0.06944  -0.16866  -0.09737  -0.21094
  50        3S         -0.04535   0.04551  -0.11992  -0.06924  -0.88300
  51        4PX        -0.00180   0.00158  -0.00232  -0.00202   0.00262
  52        4PY         0.00011   0.00091  -0.00202   0.00000   0.00151
  53        4PZ         0.00085   0.00089   0.00114   0.00066  -0.00061
  54        5PX        -0.00618   0.00392  -0.00359  -0.00604   0.00306
  55        5PY         0.00340   0.00227  -0.00604   0.00339   0.00177
  56        5PZ         0.00278   0.00795   0.00472   0.00273   0.00844
  57        6PX        -0.00763   0.00369  -0.00330  -0.00538  -0.17311
  58        6PY         0.00115   0.00213  -0.00538   0.00291  -0.09995
  59        6PZ         0.00265   0.00088   0.00441   0.00255  -0.01498
  60 5   C  1S         -0.00000   0.00899   0.00000  -0.00000  -0.03594
  61        2S         -0.00000   0.01438   0.00000  -0.00000  -0.05877
  62        2PX         0.00000   0.00000  -0.14851   0.00000   0.00000
  63        2PY         0.14794  -0.00000   0.00000  -0.14851   0.00000
  64        2PZ         0.00000  -0.19036   0.00000   0.00000  -0.05200
  65        3S          0.00000  -0.04226   0.00000   0.00000   0.12324
  66        3PX         0.00000   0.00000  -0.20229   0.00000   0.00000
  67        3PY         0.20469   0.00000   0.00000  -0.20229   0.00000
  68        3PZ        -0.00000  -0.27813   0.00000   0.00000  -0.06400
  69        4S         -0.00000  -0.04884   0.00000  -0.00000   2.64423
  70        4PX         0.00000   0.00000  -0.12126   0.00000   0.00000
  71        4PY         0.09807   0.00000   0.00000  -0.12126   0.00000
  72        4PZ        -0.00000  -0.18961   0.00000  -0.00000  -0.73886
  73        5D 0        0.00000  -0.01273   0.00000   0.00000   0.00841
  74        5D+1        0.00000   0.00000   0.01136   0.00000   0.00000
  75        5D-1       -0.00202   0.00000   0.00000   0.01136   0.00000
  76        5D+2        0.00803  -0.00000   0.00000  -0.01040  -0.00000
  77        5D-2        0.00000   0.00000  -0.01040   0.00000   0.00000
  78        6D 0       -0.00000  -0.01485   0.00000   0.00000  -0.05562
  79        6D+1        0.00000   0.00000   0.01895   0.00000   0.00000
  80        6D-1        0.01080  -0.00000   0.00000   0.01895  -0.00000
  81        6D+2       -0.00012   0.00000   0.00000  -0.00713   0.00000
  82        6D-2        0.00000   0.00000  -0.00713   0.00000   0.00000
  83 6   H  1S          0.05709   0.04975  -0.11736  -0.06776   0.00876
  84        2S          0.08253   0.06944  -0.16866  -0.09737  -0.21094
  85        3S          0.04535   0.04551  -0.11992  -0.06924  -0.88300
  86        4PX        -0.00180  -0.00158   0.00232   0.00202  -0.00262
  87        4PY         0.00011  -0.00091   0.00202  -0.00000  -0.00151
  88        4PZ         0.00085  -0.00089  -0.00114  -0.00066   0.00061
  89        5PX        -0.00618  -0.00392   0.00359   0.00604  -0.00306
  90        5PY         0.00340  -0.00227   0.00604  -0.00339  -0.00177
  91        5PZ         0.00278  -0.00795  -0.00472  -0.00273  -0.00844
  92        6PX        -0.00763  -0.00369   0.00330   0.00538   0.17311
  93        6PY         0.00115  -0.00213   0.00538  -0.00291   0.09995
  94        6PZ         0.00265  -0.00088  -0.00441  -0.00255   0.01498
  95 7   H  1S         -0.11417   0.04975   0.00000   0.13551   0.00876
  96        2S         -0.16506   0.06944   0.00000   0.19475  -0.21094
  97        3S         -0.09069   0.04551   0.00000   0.13847  -0.88300
  98        4PX         0.00000   0.00000  -0.00117   0.00000   0.00000
  99        4PY        -0.00301   0.00182   0.00000   0.00349   0.00302
 100        4PZ        -0.00171  -0.00089   0.00000   0.00132   0.00061
 101        5PX         0.00000   0.00000  -0.00687   0.00000   0.00000
 102        5PY        -0.00731   0.00453   0.00000   0.00708   0.00353
 103        5PZ        -0.00557  -0.00795   0.00000   0.00546  -0.00844
 104        6PX         0.00000   0.00000  -0.00601   0.00000   0.00000
 105        6PY        -0.01208   0.00426   0.00000   0.00640  -0.19990
 106        6PZ        -0.00530  -0.00088   0.00000   0.00509   0.01498
 107 8   H  1S          0.05709   0.04975   0.11736  -0.06776   0.00876
 108        2S          0.08253   0.06944   0.16866  -0.09737  -0.21094
 109        3S          0.04535   0.04551   0.11992  -0.06924  -0.88300
 110        4PX         0.00180   0.00158   0.00232  -0.00202   0.00262
 111        4PY         0.00011  -0.00091  -0.00202  -0.00000  -0.00151
 112        4PZ         0.00085  -0.00089   0.00114  -0.00066   0.00061
 113        5PX         0.00618   0.00392   0.00359  -0.00604   0.00306
 114        5PY         0.00340  -0.00227  -0.00604  -0.00339  -0.00177
 115        5PZ         0.00278  -0.00795   0.00472  -0.00273  -0.00844
 116        6PX         0.00763   0.00369   0.00330  -0.00538  -0.17311
 117        6PY         0.00115  -0.00213  -0.00538  -0.00291   0.09995
 118        6PZ         0.00265  -0.00088   0.00441  -0.00255   0.01498
                          11        12        13        14        15
                       (A2U)--V   (EU)--V   (EU)--V   (EG)--V   (EG)--V
     Eigenvalues --     0.07589   0.08946   0.08946   0.13073   0.13073
   1 1   C  1S         -0.04032   0.00000   0.00000   0.00000   0.00000
   2        2S         -0.06443   0.00000   0.00000   0.00000   0.00000
   3        2PX         0.00000   0.00000  -0.09030  -0.10067   0.00000
   4        2PY        -0.00000  -0.09030   0.00000   0.00000  -0.10067
   5        2PZ         0.00318  -0.00000   0.00000   0.00000  -0.00000
   6        3S          0.10985  -0.00000   0.00000   0.00000  -0.00000
   7        3PX         0.00000   0.00000  -0.21432  -0.17904   0.00000
   8        3PY        -0.00000  -0.21432   0.00000   0.00000  -0.17904
   9        3PZ         0.02855  -0.00000   0.00000   0.00000  -0.00000
  10        4S          3.42818  -0.00000   0.00000   0.00000   0.00000
  11        4PX         0.00000   0.00000  -1.67922  -1.80750   0.00000
  12        4PY        -0.00000  -1.67922   0.00000   0.00000  -1.80750
  13        4PZ         0.64924  -0.00000   0.00000   0.00000   0.00000
  14        5D 0       -0.00510   0.00000   0.00000   0.00000  -0.00000
  15        5D+1        0.00000   0.00000   0.00818  -0.00386   0.00000
  16        5D-1        0.00000   0.00818   0.00000   0.00000  -0.00386
  17        5D+2       -0.00000  -0.00177   0.00000   0.00000  -0.01170
  18        5D-2        0.00000   0.00000  -0.00177  -0.01170   0.00000
  19        6D 0       -0.06982   0.00000   0.00000   0.00000  -0.00000
  20        6D+1        0.00000   0.00000  -0.09391  -0.04049   0.00000
  21        6D-1       -0.00000  -0.09391   0.00000   0.00000  -0.04049
  22        6D+2        0.00000   0.13778   0.00000   0.00000   0.08999
  23        6D-2        0.00000   0.00000   0.13778   0.08999   0.00000
  24 2   H  1S          0.01390  -0.01310   0.00000   0.00000  -0.00386
  25        2S         -0.23099   0.43279   0.00000   0.00000   0.35071
  26        3S         -1.28380   2.38815   0.00000   0.00000   2.37981
  27        4PX         0.00000   0.00000  -0.00001  -0.00209   0.00000
  28        4PY        -0.00198   0.00334   0.00000   0.00000   0.00288
  29        4PZ        -0.00161   0.00156   0.00000   0.00000   0.00126
  30        5PX         0.00000   0.00000  -0.00805  -0.01296   0.00000
  31        5PY        -0.00293  -0.01182   0.00000   0.00000   0.00474
  32        5PZ        -0.00202   0.00018   0.00000   0.00000  -0.00117
  33        6PX         0.00000   0.00000   0.12185   0.04395   0.00000
  34        6PY         0.31460  -0.44788   0.00000   0.00000  -0.34659
  35        6PZ         0.04580  -0.24884   0.00000   0.00000  -0.16571
  36 3   H  1S          0.01390   0.00655  -0.01134  -0.00334   0.00193
  37        2S         -0.23099  -0.21639   0.37480   0.30372  -0.17535
  38        3S         -1.28380  -1.19408   2.06820   2.06097  -1.18990
  39        4PX        -0.00172  -0.00145   0.00250   0.00164  -0.00215
  40        4PY         0.00099   0.00083  -0.00145  -0.00215  -0.00085
  41        4PZ        -0.00161  -0.00078   0.00135   0.00109  -0.00063
  42        5PX        -0.00254   0.00163  -0.01088   0.00031  -0.00766
  43        5PY         0.00146  -0.00899   0.00163  -0.00766  -0.00854
  44        5PZ        -0.00202  -0.00009   0.00015  -0.00101   0.00058
  45        6PX         0.27245   0.24670  -0.30545  -0.24895   0.16911
  46        6PY        -0.15730  -0.02058   0.24670   0.16911  -0.05368
  47        6PZ         0.04580   0.12442  -0.21550  -0.14351   0.08286
  48 4   H  1S          0.01390   0.00655   0.01134   0.00334   0.00193
  49        2S         -0.23099  -0.21639  -0.37480  -0.30372  -0.17535
  50        3S         -1.28380  -1.19408  -2.06820  -2.06097  -1.18990
  51        4PX         0.00172   0.00145   0.00250   0.00164   0.00215
  52        4PY         0.00099   0.00083   0.00145   0.00215  -0.00085
  53        4PZ        -0.00161  -0.00078  -0.00135  -0.00109  -0.00063
  54        5PX         0.00254  -0.00163  -0.01088   0.00031   0.00766
  55        5PY         0.00146  -0.00899  -0.00163   0.00766  -0.00854
  56        5PZ        -0.00202  -0.00009  -0.00015   0.00101   0.00058
  57        6PX        -0.27245  -0.24670  -0.30545  -0.24895  -0.16911
  58        6PY        -0.15730  -0.02058  -0.24670  -0.16911  -0.05368
  59        6PZ         0.04580   0.12442   0.21550   0.14351   0.08286
  60 5   C  1S          0.04032  -0.00000   0.00000   0.00000   0.00000
  61        2S          0.06443  -0.00000   0.00000   0.00000   0.00000
  62        2PX         0.00000   0.00000  -0.09030   0.10067   0.00000
  63        2PY        -0.00000  -0.09030   0.00000   0.00000   0.10067
  64        2PZ         0.00318  -0.00000   0.00000   0.00000   0.00000
  65        3S         -0.10985   0.00000   0.00000   0.00000  -0.00000
  66        3PX         0.00000   0.00000  -0.21432   0.17904   0.00000
  67        3PY        -0.00000  -0.21432   0.00000   0.00000   0.17904
  68        3PZ         0.02855  -0.00000   0.00000   0.00000   0.00000
  69        4S         -3.42818   0.00000   0.00000   0.00000   0.00000
  70        4PX         0.00000   0.00000  -1.67922   1.80750   0.00000
  71        4PY        -0.00000  -1.67922   0.00000   0.00000   1.80750
  72        4PZ         0.64924  -0.00000   0.00000   0.00000  -0.00000
  73        5D 0        0.00510  -0.00000   0.00000   0.00000  -0.00000
  74        5D+1        0.00000   0.00000  -0.00818  -0.00386   0.00000
  75        5D-1       -0.00000  -0.00818   0.00000   0.00000  -0.00386
  76        5D+2        0.00000   0.00177   0.00000   0.00000  -0.01170
  77        5D-2        0.00000   0.00000   0.00177  -0.01170   0.00000
  78        6D 0        0.06982  -0.00000   0.00000   0.00000  -0.00000
  79        6D+1        0.00000   0.00000   0.09391  -0.04049   0.00000
  80        6D-1        0.00000   0.09391   0.00000   0.00000  -0.04049
  81        6D+2       -0.00000  -0.13778   0.00000   0.00000   0.08999
  82        6D-2        0.00000   0.00000  -0.13778   0.08999   0.00000
  83 6   H  1S         -0.01390  -0.00655  -0.01134   0.00334   0.00193
  84        2S          0.23099   0.21639   0.37480  -0.30372  -0.17535
  85        3S          1.28380   1.19408   2.06820  -2.06097  -1.18990
  86        4PX         0.00172   0.00145   0.00250  -0.00164  -0.00215
  87        4PY         0.00099   0.00083   0.00145  -0.00215   0.00085
  88        4PZ        -0.00161  -0.00078  -0.00135   0.00109   0.00063
  89        5PX         0.00254  -0.00163  -0.01088  -0.00031  -0.00766
  90        5PY         0.00146  -0.00899  -0.00163  -0.00766   0.00854
  91        5PZ        -0.00202  -0.00009  -0.00015  -0.00101  -0.00058
  92        6PX        -0.27245  -0.24670  -0.30545   0.24895   0.16911
  93        6PY        -0.15730  -0.02058  -0.24670   0.16911   0.05368
  94        6PZ         0.04580   0.12442   0.21550  -0.14351  -0.08286
  95 7   H  1S         -0.01390   0.01310   0.00000   0.00000  -0.00386
  96        2S          0.23099  -0.43279   0.00000   0.00000   0.35071
  97        3S          1.28380  -2.38815   0.00000   0.00000   2.37981
  98        4PX         0.00000   0.00000  -0.00001   0.00209   0.00000
  99        4PY        -0.00198   0.00334   0.00000   0.00000  -0.00288
 100        4PZ        -0.00161   0.00156   0.00000   0.00000  -0.00126
 101        5PX         0.00000   0.00000  -0.00805   0.01296   0.00000
 102        5PY        -0.00293  -0.01182   0.00000   0.00000  -0.00474
 103        5PZ        -0.00202   0.00018   0.00000   0.00000   0.00117
 104        6PX         0.00000   0.00000   0.12185  -0.04395   0.00000
 105        6PY         0.31460  -0.44788   0.00000   0.00000   0.34659
 106        6PZ         0.04580  -0.24884   0.00000   0.00000   0.16571
 107 8   H  1S         -0.01390  -0.00655   0.01134  -0.00334   0.00193
 108        2S          0.23099   0.21639  -0.37480   0.30372  -0.17535
 109        3S          1.28380   1.19408  -2.06820   2.06097  -1.18990
 110        4PX        -0.00172  -0.00145   0.00250  -0.00164   0.00215
 111        4PY         0.00099   0.00083  -0.00145   0.00215   0.00085
 112        4PZ        -0.00161  -0.00078   0.00135  -0.00109   0.00063
 113        5PX        -0.00254   0.00163  -0.01088  -0.00031   0.00766
 114        5PY         0.00146  -0.00899   0.00163   0.00766   0.00854
 115        5PZ        -0.00202  -0.00009   0.00015   0.00101  -0.00058
 116        6PX         0.27245   0.24670  -0.30545   0.24895  -0.16911
 117        6PY        -0.15730  -0.02058   0.24670  -0.16911   0.05368
 118        6PZ         0.04580   0.12442  -0.21550   0.14351  -0.08286
                          16        17        18        19        20
                       (A2U)--V   (EG)--V   (EG)--V   (EU)--V   (EU)--V
     Eigenvalues --     0.21413   0.22194   0.22194   0.23415   0.23415
   1 1   C  1S         -0.01265   0.00000   0.00000   0.00000   0.00000
   2        2S         -0.01929   0.00000   0.00000   0.00000   0.00000
   3        2PX         0.00000  -0.01158   0.00000   0.00000   0.05319
   4        2PY         0.00000   0.00000  -0.01158   0.05319   0.00000
   5        2PZ        -0.15050   0.00000   0.00000   0.00000   0.00000
   6        3S         -0.01892   0.00000  -0.00000  -0.00000   0.00000
   7        3PX         0.00000  -0.02433   0.00000   0.00000   0.05228
   8        3PY         0.00000   0.00000  -0.02433   0.05228   0.00000
   9        3PZ        -0.26912   0.00000   0.00000   0.00000   0.00000
  10        4S          2.31016   0.00000   0.00000   0.00000   0.00000
  11        4PX         0.00000  -1.30869   0.00000   0.00000  -0.99383
  12        4PY        -0.00000   0.00000  -1.30869  -0.99383   0.00000
  13        4PZ        -2.17674   0.00000   0.00000  -0.00000   0.00000
  14        5D 0       -0.02833   0.00000  -0.00000   0.00000   0.00000
  15        5D+1        0.00000   0.01350   0.00000   0.00000  -0.01720
  16        5D-1       -0.00000   0.00000   0.01350  -0.01720   0.00000
  17        5D+2        0.00000   0.00000   0.02243   0.01752   0.00000
  18        5D-2        0.00000   0.02243   0.00000   0.00000   0.01752
  19        6D 0        0.11688   0.00000  -0.00000   0.00000   0.00000
  20        6D+1        0.00000  -0.15888   0.00000   0.00000  -0.08474
  21        6D-1       -0.00000   0.00000  -0.15888  -0.08474   0.00000
  22        6D+2        0.00000   0.00000   0.02157   0.06227   0.00000
  23        6D-2        0.00000   0.02157   0.00000   0.00000   0.06227
  24 2   H  1S          0.03538   0.00000  -0.05647  -0.11504   0.00000
  25        2S          0.07885   0.00000   0.04955  -0.04947   0.00000
  26        3S          0.27129   0.00000   1.54841   1.18060   0.00000
  27        4PX         0.00000   0.00696   0.00000   0.00000   0.00440
  28        4PY         0.00284   0.00000  -0.00144  -0.00123   0.00000
  29        4PZ        -0.00296   0.00000   0.00092  -0.00520   0.00000
  30        5PX         0.00000  -0.00841   0.00000   0.00000  -0.00016
  31        5PY         0.00024   0.00000   0.00748   0.00139   0.00000
  32        5PZ        -0.01474   0.00000   0.01794   0.01146   0.00000
  33        6PX         0.00000   0.57594   0.00000   0.00000   0.34743
  34        6PY         0.10238   0.00000  -0.44177  -0.44419   0.00000
  35        6PZ         0.03743   0.00000   0.09302  -0.51098   0.00000
  36 3   H  1S          0.03538  -0.04890   0.02823   0.05752  -0.09963
  37        2S          0.07885   0.04291  -0.02477   0.02473  -0.04284
  38        3S          0.27129   1.34096  -0.77420  -0.59030   1.02243
  39        4PX         0.00246   0.00066   0.00363   0.00244   0.00018
  40        4PY        -0.00142   0.00363   0.00486   0.00299   0.00244
  41        4PZ        -0.00296   0.00080  -0.00046   0.00260  -0.00450
  42        5PX         0.00021   0.00351  -0.00688  -0.00067   0.00100
  43        5PY        -0.00012  -0.00688  -0.00443   0.00022  -0.00067
  44        5PZ        -0.01474   0.01554  -0.00897  -0.00573   0.00993
  45        6PX         0.08867  -0.18734   0.44068   0.34278  -0.24628
  46        6PY        -0.05119   0.44068   0.32151   0.14953   0.34278
  47        6PZ         0.03743   0.08056  -0.04651   0.25549  -0.44252
  48 4   H  1S          0.03538   0.04890   0.02823   0.05752   0.09963
  49        2S          0.07885  -0.04291  -0.02477   0.02473   0.04284
  50        3S          0.27129  -1.34096  -0.77420  -0.59030  -1.02243
  51        4PX        -0.00246   0.00066  -0.00363  -0.00244   0.00018
  52        4PY        -0.00142  -0.00363   0.00486   0.00299  -0.00244
  53        4PZ        -0.00296  -0.00080  -0.00046   0.00260   0.00450
  54        5PX        -0.00021   0.00351   0.00688   0.00067   0.00100
  55        5PY        -0.00012   0.00688  -0.00443   0.00022   0.00067
  56        5PZ        -0.01474  -0.01554  -0.00897  -0.00573  -0.00993
  57        6PX        -0.08867  -0.18734  -0.44068  -0.34278  -0.24628
  58        6PY        -0.05119  -0.44068   0.32151   0.14953  -0.34278
  59        6PZ         0.03743  -0.08056  -0.04651   0.25549   0.44252
  60 5   C  1S          0.01265   0.00000   0.00000  -0.00000   0.00000
  61        2S          0.01929   0.00000   0.00000  -0.00000   0.00000
  62        2PX         0.00000   0.01158   0.00000   0.00000   0.05319
  63        2PY         0.00000   0.00000   0.01158   0.05319   0.00000
  64        2PZ        -0.15050   0.00000  -0.00000   0.00000   0.00000
  65        3S          0.01892   0.00000  -0.00000   0.00000   0.00000
  66        3PX         0.00000   0.02433   0.00000   0.00000   0.05228
  67        3PY         0.00000   0.00000   0.02433   0.05228   0.00000
  68        3PZ        -0.26912   0.00000  -0.00000   0.00000   0.00000
  69        4S         -2.31016   0.00000   0.00000  -0.00000   0.00000
  70        4PX         0.00000   1.30869   0.00000   0.00000  -0.99383
  71        4PY        -0.00000   0.00000   1.30869  -0.99383   0.00000
  72        4PZ        -2.17674   0.00000  -0.00000  -0.00000   0.00000
  73        5D 0        0.02833   0.00000  -0.00000  -0.00000   0.00000
  74        5D+1        0.00000   0.01350   0.00000   0.00000   0.01720
  75        5D-1        0.00000   0.00000   0.01350   0.01720   0.00000
  76        5D+2       -0.00000   0.00000   0.02243  -0.01752   0.00000
  77        5D-2        0.00000   0.02243   0.00000   0.00000  -0.01752
  78        6D 0       -0.11688   0.00000  -0.00000  -0.00000   0.00000
  79        6D+1        0.00000  -0.15888   0.00000   0.00000   0.08474
  80        6D-1        0.00000   0.00000  -0.15888   0.08474   0.00000
  81        6D+2       -0.00000   0.00000   0.02157  -0.06227   0.00000
  82        6D-2        0.00000   0.02157   0.00000   0.00000  -0.06227
  83 6   H  1S         -0.03538   0.04890   0.02823  -0.05752  -0.09963
  84        2S         -0.07885  -0.04291  -0.02477  -0.02473  -0.04284
  85        3S         -0.27129  -1.34096  -0.77420   0.59030   1.02243
  86        4PX        -0.00246  -0.00066   0.00363  -0.00244   0.00018
  87        4PY        -0.00142   0.00363  -0.00486   0.00299  -0.00244
  88        4PZ        -0.00296   0.00080   0.00046   0.00260   0.00450
  89        5PX        -0.00021  -0.00351  -0.00688   0.00067   0.00100
  90        5PY        -0.00012  -0.00688   0.00443   0.00022   0.00067
  91        5PZ        -0.01474   0.01554   0.00897  -0.00573  -0.00993
  92        6PX        -0.08867   0.18734   0.44068  -0.34278  -0.24628
  93        6PY        -0.05119   0.44068  -0.32151   0.14953  -0.34278
  94        6PZ         0.03743   0.08056   0.04651   0.25549   0.44252
  95 7   H  1S         -0.03538   0.00000  -0.05647   0.11504   0.00000
  96        2S         -0.07885   0.00000   0.04955   0.04947   0.00000
  97        3S         -0.27129   0.00000   1.54841  -1.18060   0.00000
  98        4PX         0.00000  -0.00696   0.00000   0.00000   0.00440
  99        4PY         0.00284   0.00000   0.00144  -0.00123   0.00000
 100        4PZ        -0.00296   0.00000  -0.00092  -0.00520   0.00000
 101        5PX         0.00000   0.00841   0.00000   0.00000  -0.00016
 102        5PY         0.00024   0.00000  -0.00748   0.00139   0.00000
 103        5PZ        -0.01474   0.00000  -0.01794   0.01146   0.00000
 104        6PX         0.00000  -0.57594   0.00000   0.00000   0.34743
 105        6PY         0.10238   0.00000   0.44177  -0.44419   0.00000
 106        6PZ         0.03743   0.00000  -0.09302  -0.51098   0.00000
 107 8   H  1S         -0.03538  -0.04890   0.02823  -0.05752   0.09963
 108        2S         -0.07885   0.04291  -0.02477  -0.02473   0.04284
 109        3S         -0.27129   1.34096  -0.77420   0.59030  -1.02243
 110        4PX         0.00246  -0.00066  -0.00363   0.00244   0.00018
 111        4PY        -0.00142  -0.00363  -0.00486   0.00299   0.00244
 112        4PZ        -0.00296  -0.00080   0.00046   0.00260  -0.00450
 113        5PX         0.00021  -0.00351   0.00688  -0.00067   0.00100
 114        5PY        -0.00012   0.00688   0.00443   0.00022  -0.00067
 115        5PZ        -0.01474  -0.01554   0.00897  -0.00573   0.00993
 116        6PX         0.08867   0.18734  -0.44068   0.34278  -0.24628
 117        6PY        -0.05119  -0.44068  -0.32151   0.14953   0.34278
 118        6PZ         0.03743  -0.08056   0.04651   0.25549  -0.44252
                          21        22        23        24        25
                       (A1G)--V   (EU)--V   (EU)--V  (A2U)--V  (A1G)--V
     Eigenvalues --     0.24432   0.34648   0.34648   0.37553   0.41229
   1 1   C  1S          0.01850   0.00000   0.00000   0.05839   0.03580
   2        2S          0.03197   0.00000   0.00000   0.09852   0.06045
   3        2PX         0.00000   0.00000   0.02681   0.00000   0.00000
   4        2PY         0.00000   0.02681   0.00000   0.00000   0.00000
   5        2PZ         0.07168   0.00000   0.00000   0.05442  -0.10407
   6        3S         -0.12810  -0.00000   0.00000  -0.33605  -0.29727
   7        3PX         0.00000   0.00000   0.03219   0.00000   0.00000
   8        3PY         0.00000   0.03219   0.00000  -0.00000   0.00000
   9        3PZ         0.08510   0.00000   0.00000   0.14916  -0.13347
  10        4S          1.98656   0.00000   0.00000   3.86061   5.56105
  11        4PX         0.00000   0.00000  -0.16509   0.00000   0.00000
  12        4PY         0.00000  -0.16509   0.00000  -0.00000  -0.00000
  13        4PZ         1.39459  -0.00000   0.00000   2.80222   0.77612
  14        5D 0       -0.02170   0.00000   0.00000   0.01226   0.00945
  15        5D+1        0.00000   0.00000   0.02672   0.00000   0.00000
  16        5D-1       -0.00000   0.02672   0.00000   0.00000   0.00000
  17        5D+2       -0.00000   0.01787   0.00000  -0.00000  -0.00000
  18        5D-2        0.00000   0.00000   0.01787   0.00000   0.00000
  19        6D 0       -0.04514   0.00000   0.00000  -0.11149  -0.18641
  20        6D+1        0.00000   0.00000  -0.01812   0.00000   0.00000
  21        6D-1        0.00000  -0.01812   0.00000  -0.00000  -0.00000
  22        6D+2        0.00000  -0.09752   0.00000   0.00000   0.00000
  23        6D-2        0.00000   0.00000  -0.09752   0.00000   0.00000
  24 2   H  1S          0.03642  -0.00642   0.00000   0.06235   0.06981
  25        2S         -0.04171  -0.01840   0.00000  -0.26137  -0.32921
  26        3S         -0.58593   0.09156   0.00000  -1.82526  -1.38608
  27        4PX         0.00000   0.00000   0.00475   0.00000   0.00000
  28        4PY         0.00320  -0.00474   0.00000   0.00458   0.00267
  29        4PZ        -0.00584   0.00629   0.00000   0.00114   0.00178
  30        5PX         0.00000   0.00000   0.00754   0.00000   0.00000
  31        5PY        -0.01374   0.01236   0.00000   0.00035   0.02182
  32        5PZ         0.02083  -0.00580   0.00000   0.01370   0.00318
  33        6PX         0.00000   0.00000   0.41979   0.00000   0.00000
  34        6PY         0.40577  -0.32498   0.00000   0.96487   0.85832
  35        6PZ        -0.54408   0.48882   0.00000   0.09692   0.39791
  36 3   H  1S          0.03642   0.00321  -0.00556   0.06235   0.06981
  37        2S         -0.04171   0.00920  -0.01593  -0.26137  -0.32921
  38        3S         -0.58593  -0.04578   0.07929  -1.82526  -1.38608
  39        4PX         0.00277   0.00411  -0.00237   0.00396   0.00232
  40        4PY        -0.00160   0.00238   0.00411  -0.00229  -0.00134
  41        4PZ        -0.00584  -0.00315   0.00545   0.00114   0.00178
  42        5PX        -0.01190  -0.00208   0.01116   0.00030   0.01889
  43        5PY         0.00687   0.00875  -0.00208  -0.00017  -0.01091
  44        5PZ         0.02083   0.00290  -0.00502   0.01370   0.00318
  45        6PX         0.35141   0.32249  -0.13879   0.83560   0.74332
  46        6PY        -0.20289   0.23360   0.32249  -0.48244  -0.42916
  47        6PZ        -0.54408  -0.24441   0.42333   0.09692   0.39791
  48 4   H  1S          0.03642   0.00321   0.00556   0.06235   0.06981
  49        2S         -0.04171   0.00920   0.01593  -0.26137  -0.32921
  50        3S         -0.58593  -0.04578  -0.07929  -1.82526  -1.38608
  51        4PX        -0.00277  -0.00411  -0.00237  -0.00396  -0.00232
  52        4PY        -0.00160   0.00238  -0.00411  -0.00229  -0.00134
  53        4PZ        -0.00584  -0.00315  -0.00545   0.00114   0.00178
  54        5PX         0.01190   0.00208   0.01116  -0.00030  -0.01889
  55        5PY         0.00687   0.00875   0.00208  -0.00017  -0.01091
  56        5PZ         0.02083   0.00290   0.00502   0.01370   0.00318
  57        6PX        -0.35141  -0.32249  -0.13879  -0.83560  -0.74332
  58        6PY        -0.20289   0.23360  -0.32249  -0.48244  -0.42916
  59        6PZ        -0.54408  -0.24441  -0.42333   0.09692   0.39791
  60 5   C  1S          0.01850  -0.00000   0.00000  -0.05839   0.03580
  61        2S          0.03197  -0.00000   0.00000  -0.09852   0.06045
  62        2PX         0.00000   0.00000   0.02681   0.00000   0.00000
  63        2PY        -0.00000   0.02681   0.00000   0.00000  -0.00000
  64        2PZ        -0.07168   0.00000   0.00000   0.05442   0.10407
  65        3S         -0.12810   0.00000   0.00000   0.33605  -0.29727
  66        3PX         0.00000   0.00000   0.03219   0.00000   0.00000
  67        3PY        -0.00000   0.03219   0.00000  -0.00000  -0.00000
  68        3PZ        -0.08510   0.00000   0.00000   0.14916   0.13347
  69        4S          1.98656  -0.00000   0.00000  -3.86061   5.56105
  70        4PX         0.00000   0.00000  -0.16509   0.00000   0.00000
  71        4PY        -0.00000  -0.16509   0.00000  -0.00000   0.00000
  72        4PZ        -1.39459  -0.00000   0.00000   2.80222  -0.77612
  73        5D 0       -0.02170  -0.00000   0.00000  -0.01226   0.00945
  74        5D+1        0.00000   0.00000  -0.02672   0.00000   0.00000
  75        5D-1       -0.00000  -0.02672   0.00000  -0.00000   0.00000
  76        5D+2       -0.00000  -0.01787   0.00000   0.00000  -0.00000
  77        5D-2        0.00000   0.00000  -0.01787   0.00000   0.00000
  78        6D 0       -0.04514  -0.00000   0.00000   0.11149  -0.18641
  79        6D+1        0.00000   0.00000   0.01812   0.00000   0.00000
  80        6D-1        0.00000   0.01812   0.00000   0.00000  -0.00000
  81        6D+2        0.00000   0.09752   0.00000  -0.00000   0.00000
  82        6D-2        0.00000   0.00000   0.09752   0.00000   0.00000
  83 6   H  1S          0.03642  -0.00321  -0.00556  -0.06235   0.06981
  84        2S         -0.04171  -0.00920  -0.01593   0.26137  -0.32921
  85        3S         -0.58593   0.04578   0.07929   1.82526  -1.38608
  86        4PX         0.00277  -0.00411  -0.00237  -0.00396   0.00232
  87        4PY         0.00160   0.00238  -0.00411  -0.00229   0.00134
  88        4PZ         0.00584  -0.00315  -0.00545   0.00114  -0.00178
  89        5PX        -0.01190   0.00208   0.01116  -0.00030   0.01889
  90        5PY        -0.00687   0.00875   0.00208  -0.00017   0.01091
  91        5PZ        -0.02083   0.00290   0.00502   0.01370  -0.00318
  92        6PX         0.35141  -0.32249  -0.13879  -0.83560   0.74332
  93        6PY         0.20289   0.23360  -0.32249  -0.48244   0.42916
  94        6PZ         0.54408  -0.24441  -0.42333   0.09692  -0.39791
  95 7   H  1S          0.03642   0.00642   0.00000  -0.06235   0.06981
  96        2S         -0.04171   0.01840   0.00000   0.26137  -0.32921
  97        3S         -0.58593  -0.09156   0.00000   1.82526  -1.38608
  98        4PX         0.00000   0.00000   0.00475   0.00000   0.00000
  99        4PY        -0.00320  -0.00474   0.00000   0.00458  -0.00267
 100        4PZ         0.00584   0.00629   0.00000   0.00114  -0.00178
 101        5PX         0.00000   0.00000   0.00754   0.00000   0.00000
 102        5PY         0.01374   0.01236   0.00000   0.00035  -0.02182
 103        5PZ        -0.02083  -0.00580   0.00000   0.01370  -0.00318
 104        6PX         0.00000   0.00000   0.41979   0.00000   0.00000
 105        6PY        -0.40577  -0.32498   0.00000   0.96487  -0.85832
 106        6PZ         0.54408   0.48882   0.00000   0.09692  -0.39791
 107 8   H  1S          0.03642  -0.00321   0.00556  -0.06235   0.06981
 108        2S         -0.04171  -0.00920   0.01593   0.26137  -0.32921
 109        3S         -0.58593   0.04578  -0.07929   1.82526  -1.38608
 110        4PX        -0.00277   0.00411  -0.00237   0.00396  -0.00232
 111        4PY         0.00160   0.00238   0.00411  -0.00229   0.00134
 112        4PZ         0.00584  -0.00315   0.00545   0.00114  -0.00178
 113        5PX         0.01190  -0.00208   0.01116   0.00030  -0.01889
 114        5PY        -0.00687   0.00875  -0.00208  -0.00017   0.01091
 115        5PZ        -0.02083   0.00290  -0.00502   0.01370  -0.00318
 116        6PX        -0.35141   0.32249  -0.13879   0.83560  -0.74332
 117        6PY         0.20289   0.23360   0.32249  -0.48244   0.42916
 118        6PZ         0.54408  -0.24441   0.42333   0.09692  -0.39791
                          26        27        28        29        30
                        (EG)--V   (EG)--V   (EU)--V   (EU)--V  (A1U)--V
     Eigenvalues --     0.45700   0.45700   0.46279   0.46279   0.46625
   1 1   C  1S          0.00000  -0.00000  -0.00000   0.00000   0.00000
   2        2S          0.00000  -0.00000  -0.00000   0.00000   0.00000
   3        2PX        -0.18522   0.00000   0.00000   0.17035  -0.00000
   4        2PY         0.00000   0.18522   0.17035   0.00000   0.00000
   5        2PZ         0.00000   0.00000   0.00000   0.00000   0.00000
   6        3S          0.00000   0.00000  -0.00000   0.00000   0.00000
   7        3PX        -0.21059   0.00000   0.00000   0.11291  -0.00000
   8        3PY         0.00000   0.21059   0.11291   0.00000   0.00000
   9        3PZ         0.00000   0.00000  -0.00000   0.00000   0.00000
  10        4S          0.00000  -0.00000   0.00000   0.00000   0.00000
  11        4PX         3.24508   0.00000   0.00000  -2.49724   0.00000
  12        4PY         0.00000  -3.24508  -2.49724   0.00000   0.00000
  13        4PZ         0.00000   0.00000  -0.00000   0.00000   0.00000
  14        5D 0        0.00000   0.00000  -0.00000   0.00000   0.00000
  15        5D+1        0.00639   0.00000   0.00000   0.00123  -0.00000
  16        5D-1        0.00000  -0.00639   0.00123   0.00000   0.00000
  17        5D+2        0.00000  -0.00603  -0.01401   0.00000   0.00000
  18        5D-2        0.00603   0.00000   0.00000  -0.01401   0.00000
  19        6D 0        0.00000   0.00000   0.00000   0.00000   0.00000
  20        6D+1        0.09070   0.00000   0.00000  -0.34604   0.00000
  21        6D-1        0.00000  -0.09070  -0.34604   0.00000   0.00000
  22        6D+2        0.00000   0.35341   0.46390   0.00000   0.00000
  23        6D-2       -0.35341   0.00000   0.00000   0.46390  -0.00000
  24 2   H  1S          0.00000  -0.07198  -0.03774   0.00000   0.00000
  25        2S          0.00000   0.65001   0.98431   0.00000   0.00000
  26        3S          0.00000   3.59892   3.26142   0.00000   0.00000
  27        4PX        -0.00089   0.00000   0.00000  -0.00454   0.00892
  28        4PY         0.00000  -0.00407  -0.00087   0.00000   0.00000
  29        4PZ         0.00000  -0.00357   0.00325   0.00000   0.00000
  30        5PX         0.00200   0.00000   0.00000   0.00844  -0.03490
  31        5PY         0.00000  -0.03793  -0.08464   0.00000   0.00000
  32        5PZ         0.00000  -0.02251  -0.04920   0.00000   0.00000
  33        6PX        -0.16014   0.00000   0.00000  -0.37119   0.74785
  34        6PY         0.00000  -1.24274  -1.35294   0.00000   0.00000
  35        6PZ         0.00000  -0.75951  -0.27992   0.00000   0.00000
  36 3   H  1S          0.06233   0.03599   0.01887  -0.03268   0.00000
  37        2S         -0.56293  -0.32501  -0.49216   0.85244  -0.00000
  38        3S         -3.11676  -1.79946  -1.63071   2.82447  -0.00000
  39        4PX         0.00283   0.00215  -0.00159  -0.00179  -0.00446
  40        4PY        -0.00215  -0.00035  -0.00363  -0.00159  -0.00772
  41        4PZ         0.00309   0.00179  -0.00163   0.00282  -0.00000
  42        5PX         0.02895   0.01556   0.04030  -0.06137   0.01745
  43        5PY        -0.01556  -0.01098  -0.01483   0.04030   0.03022
  44        5PZ         0.01949   0.01125   0.02460  -0.04261   0.00000
  45        6PX         0.89202   0.60746   0.42511  -1.10750  -0.37393
  46        6PY        -0.60746  -0.19058  -0.61663   0.42511  -0.64766
  47        6PZ         0.65775   0.37976   0.13996  -0.24242   0.00000
  48 4   H  1S         -0.06233   0.03599   0.01887   0.03268  -0.00000
  49        2S          0.56293  -0.32501  -0.49216  -0.85244   0.00000
  50        3S          3.11676  -1.79946  -1.63071  -2.82447   0.00000
  51        4PX         0.00283  -0.00215   0.00159  -0.00179  -0.00446
  52        4PY         0.00215  -0.00035  -0.00363   0.00159   0.00772
  53        4PZ        -0.00309   0.00179  -0.00163  -0.00282   0.00000
  54        5PX         0.02895  -0.01556  -0.04030  -0.06137   0.01745
  55        5PY         0.01556  -0.01098  -0.01483  -0.04030  -0.03022
  56        5PZ        -0.01949   0.01125   0.02460   0.04261  -0.00000
  57        6PX         0.89202  -0.60746  -0.42511  -1.10750  -0.37393
  58        6PY         0.60746  -0.19058  -0.61663  -0.42511   0.64766
  59        6PZ        -0.65775   0.37976   0.13996   0.24242  -0.00000
  60 5   C  1S          0.00000  -0.00000   0.00000   0.00000   0.00000
  61        2S          0.00000  -0.00000   0.00000   0.00000   0.00000
  62        2PX         0.18522   0.00000   0.00000   0.17035  -0.00000
  63        2PY         0.00000  -0.18522   0.17035   0.00000   0.00000
  64        2PZ         0.00000  -0.00000   0.00000   0.00000   0.00000
  65        3S          0.00000   0.00000   0.00000   0.00000   0.00000
  66        3PX         0.21059   0.00000   0.00000   0.11291  -0.00000
  67        3PY         0.00000  -0.21059   0.11291   0.00000   0.00000
  68        3PZ         0.00000  -0.00000  -0.00000   0.00000   0.00000
  69        4S          0.00000  -0.00000  -0.00000   0.00000   0.00000
  70        4PX        -3.24508   0.00000   0.00000  -2.49724   0.00000
  71        4PY         0.00000   3.24508  -2.49724   0.00000   0.00000
  72        4PZ         0.00000  -0.00000  -0.00000   0.00000   0.00000
  73        5D 0        0.00000   0.00000   0.00000   0.00000   0.00000
  74        5D+1        0.00639   0.00000   0.00000  -0.00123   0.00000
  75        5D-1        0.00000  -0.00639  -0.00123   0.00000   0.00000
  76        5D+2        0.00000  -0.00603   0.01401   0.00000   0.00000
  77        5D-2        0.00603   0.00000   0.00000   0.01401  -0.00000
  78        6D 0        0.00000   0.00000  -0.00000   0.00000   0.00000
  79        6D+1        0.09070   0.00000   0.00000   0.34604  -0.00000
  80        6D-1        0.00000  -0.09070   0.34604   0.00000   0.00000
  81        6D+2        0.00000   0.35341  -0.46390   0.00000   0.00000
  82        6D-2       -0.35341   0.00000   0.00000  -0.46390   0.00000
  83 6   H  1S         -0.06233   0.03599  -0.01887  -0.03268   0.00000
  84        2S          0.56293  -0.32501   0.49216   0.85244  -0.00000
  85        3S          3.11676  -1.79946   1.63071   2.82447  -0.00000
  86        4PX        -0.00283   0.00215   0.00159  -0.00179  -0.00446
  87        4PY        -0.00215   0.00035  -0.00363   0.00159   0.00772
  88        4PZ         0.00309  -0.00179  -0.00163  -0.00282   0.00000
  89        5PX        -0.02895   0.01556  -0.04030  -0.06137   0.01745
  90        5PY        -0.01556   0.01098  -0.01483  -0.04030  -0.03022
  91        5PZ         0.01949  -0.01125   0.02460   0.04261  -0.00000
  92        6PX        -0.89202   0.60746  -0.42511  -1.10750  -0.37393
  93        6PY        -0.60746   0.19058  -0.61663  -0.42511   0.64766
  94        6PZ         0.65775  -0.37976   0.13996   0.24242  -0.00000
  95 7   H  1S          0.00000  -0.07198   0.03774   0.00000   0.00000
  96        2S          0.00000   0.65001  -0.98431   0.00000   0.00000
  97        3S          0.00000   3.59892  -3.26142   0.00000   0.00000
  98        4PX         0.00089   0.00000   0.00000  -0.00454   0.00892
  99        4PY         0.00000   0.00407  -0.00087   0.00000   0.00000
 100        4PZ         0.00000   0.00357   0.00325   0.00000   0.00000
 101        5PX        -0.00200   0.00000   0.00000   0.00844  -0.03490
 102        5PY         0.00000   0.03793  -0.08464   0.00000   0.00000
 103        5PZ         0.00000   0.02251  -0.04920   0.00000   0.00000
 104        6PX         0.16014   0.00000   0.00000  -0.37119   0.74785
 105        6PY         0.00000   1.24274  -1.35294   0.00000   0.00000
 106        6PZ         0.00000   0.75951  -0.27992   0.00000   0.00000
 107 8   H  1S          0.06233   0.03599  -0.01887   0.03268  -0.00000
 108        2S         -0.56293  -0.32501   0.49216  -0.85244   0.00000
 109        3S         -3.11676  -1.79946   1.63071  -2.82447   0.00000
 110        4PX        -0.00283  -0.00215  -0.00159  -0.00179  -0.00446
 111        4PY         0.00215   0.00035  -0.00363  -0.00159  -0.00772
 112        4PZ        -0.00309  -0.00179  -0.00163   0.00282  -0.00000
 113        5PX        -0.02895  -0.01556   0.04030  -0.06137   0.01745
 114        5PY         0.01556   0.01098  -0.01483   0.04030   0.03022
 115        5PZ        -0.01949  -0.01125   0.02460  -0.04261   0.00000
 116        6PX        -0.89202  -0.60746   0.42511  -1.10750  -0.37393
 117        6PY         0.60746   0.19058  -0.61663   0.42511  -0.64766
 118        6PZ        -0.65775  -0.37976   0.13996  -0.24242   0.00000
                          31        32        33        34        35
                       (A2U)--V   (EG)--V   (EG)--V  (A2G)--V  (A1G)--V
     Eigenvalues --     0.52385   0.54741   0.54741   0.57874   0.64108
   1 1   C  1S         -0.01302   0.00000   0.00000   0.00000   0.04050
   2        2S         -0.02768   0.00000   0.00000   0.00000   0.07176
   3        2PX         0.00000   0.00000  -0.04336  -0.00000   0.00000
   4        2PY         0.00000  -0.04336   0.00000   0.00000  -0.00000
   5        2PZ        -0.24502  -0.00000   0.00000   0.00000  -0.02598
   6        3S          0.36748   0.00000   0.00000   0.00000  -0.64701
   7        3PX         0.00000   0.00000  -0.01538  -0.00000   0.00000
   8        3PY         0.00000  -0.01538   0.00000   0.00000  -0.00000
   9        3PZ        -0.26824  -0.00000   0.00000   0.00000  -0.31238
  10        4S         -5.10794  -0.00000   0.00000   0.00000   5.57929
  11        4PX         0.00000   0.00000  -0.16144  -0.00000   0.00000
  12        4PY        -0.00000  -0.16144   0.00000   0.00000   0.00000
  13        4PZ         6.51212  -0.00000   0.00000   0.00000   3.61096
[...]
     11  0.284538D-03 -0.109456D-02  0.930774D-02  0.930774D-02  0.139409D-01
     12 -0.103848D-02  0.386153D-02 -0.398564D-01  0.139409D-01 -0.201589D-01
     13 -0.103848D-02 -0.103849D-02  0.139409D-01 -0.398564D-01 -0.201589D-01
     14 -0.561270D-02 -0.561268D-02  0.450446D-02 -0.376315D-02 -0.714163D-02
     15  0.328709D-03 -0.561270D-02 -0.376315D-02 -0.376315D-02  0.171147D-01
     16 -0.561270D-02  0.328691D-03 -0.376315D-02  0.450446D-02 -0.714163D-02
     17  0.564382D-02  0.341828D-03  0.185014D-03  0.285501D-02 -0.376315D-02
     18  0.341852D-03  0.564381D-02  0.185027D-03  0.185027D-03  0.450446D-02
     19  0.564382D-02  0.564383D-02  0.285501D-02  0.185014D-03 -0.376315D-02
     20 -0.358573D-02  0.410868D-02  0.574066D-02 -0.500348D-02 -0.197905D-02
     21  0.000000D+00 -0.306278D-02  0.647782D-02 -0.647782D-02  0.000000D+00
     22  0.358573D-02  0.522957D-03  0.500348D-02 -0.574066D-02  0.197905D-02
     23 -0.410869D-02  0.358574D-02 -0.574066D-02  0.737166D-03 -0.678709D-02
     24 -0.522963D-03 -0.358573D-02 -0.500350D-02 -0.737176D-03 -0.480804D-02
     25  0.306276D-02  0.000000D+00 -0.647784D-02  0.000000D+00 -0.282899D-02
     26 -0.306276D-02  0.306277D-02  0.000000D+00  0.647784D-02  0.282899D-02
     27  0.522963D-03 -0.410869D-02  0.737176D-03  0.500350D-02  0.480804D-02
     28  0.410869D-02 -0.522953D-03 -0.737166D-03  0.574066D-02  0.678709D-02
               11            12            13            14            15 
     11  0.515795D-01
     12 -0.398564D-01  0.101945D+00
     13 -0.398564D-01 -0.201589D-01  0.101945D+00
     14 -0.376315D-02 -0.714161D-02  0.171147D-01  0.101945D+00
     15  0.450446D-02 -0.714163D-02 -0.714163D-02 -0.201589D-01  0.101945D+00
     16 -0.376315D-02  0.171147D-01 -0.714161D-02 -0.201589D-01 -0.201589D-01
     17  0.185027D-03  0.450446D-02 -0.376315D-02 -0.398564D-01 -0.398564D-01
     18  0.285501D-02 -0.376315D-02 -0.376315D-02 -0.398564D-01  0.139409D-01
     19  0.185027D-03 -0.376315D-02  0.450446D-02  0.139409D-01 -0.398564D-01
     20 -0.737176D-03  0.678708D-02 -0.480803D-02 -0.197904D-02 -0.480804D-02
     21  0.000000D+00  0.282900D-02 -0.282900D-02  0.282900D-02  0.000000D+00
     22  0.737176D-03  0.480803D-02 -0.678708D-02 -0.678708D-02  0.480804D-02
     23  0.500350D-02  0.197905D-02  0.480804D-02  0.197905D-02 -0.678709D-02
     24  0.574067D-02 -0.197904D-02  0.678708D-02  0.678708D-02 -0.197905D-02
     25  0.647785D-02  0.000000D+00  0.282899D-02 -0.282899D-02  0.282899D-02
     26 -0.647785D-02 -0.282899D-02  0.000000D+00  0.000000D+00 -0.282899D-02
     27 -0.574067D-02 -0.678708D-02  0.197904D-02  0.480803D-02  0.197905D-02
     28 -0.500350D-02 -0.480804D-02 -0.197905D-02 -0.480804D-02  0.678709D-02
               16            17            18            19            20 
     16  0.101945D+00
     17  0.139409D-01  0.515795D-01
     18 -0.398564D-01  0.930774D-02  0.515795D-01
     19 -0.398564D-01  0.930775D-02  0.930774D-02  0.515795D-01
     20  0.678708D-02 -0.500350D-02  0.574067D-02 -0.737176D-03  0.145719D-01
     21 -0.282900D-02  0.647782D-02  0.000000D+00 -0.647782D-02  0.362070D-02
     22  0.197904D-02  0.737176D-03 -0.574067D-02  0.500350D-02  0.402558D-02
     23  0.480804D-02 -0.574066D-02  0.500350D-02  0.737166D-03  0.402560D-02
     24 -0.480803D-02  0.574066D-02 -0.737176D-03 -0.500348D-02 -0.692559D-02
     25  0.000000D+00  0.000000D+00 -0.647785D-02  0.647784D-02 -0.652071D-02
     26  0.282899D-02 -0.647784D-02  0.647785D-02  0.000000D+00  0.362071D-02
     27 -0.678708D-02  0.500348D-02  0.737176D-03 -0.574066D-02 -0.733048D-02
     28 -0.197905D-02 -0.737166D-03 -0.500350D-02  0.574066D-02 -0.692560D-02
               21            22            23            24            25 
     21  0.137621D-01
     22  0.362070D-02  0.145719D-01
     23 -0.652070D-02 -0.692560D-02  0.145719D-01
     24  0.362070D-02 -0.733048D-02  0.402560D-02  0.145719D-01
     25 -0.652070D-02  0.362071D-02  0.362070D-02  0.362071D-02  0.137621D-01
     26 -0.652070D-02 -0.652071D-02  0.362070D-02 -0.652071D-02 -0.652072D-02
     27  0.362070D-02 -0.692559D-02 -0.692560D-02  0.402558D-02 -0.652071D-02
     28 -0.652070D-02  0.402560D-02 -0.733050D-02 -0.692560D-02  0.362070D-02
               26            27            28 
     26  0.137621D-01
     27  0.362071D-02  0.145719D-01
     28  0.362070D-02  0.402560D-02  0.145719D-01
 Leave Link  716 at Fri Sep  6 16:44:21 2024, MaxMem=  1073741824 cpu:               0.2 elap:               0.0
 (Enter /Users/asuyarger/Applications/G16/g16/l103.exe)

 GradGradGradGradGradGradGradGradGradGradGradGradGradGradGradGradGradGrad
 Berny optimization.
 Red2BG is reusing G-inverse.
 Internal  Forces:  Max     0.000005614 RMS     0.000002623
 Search for a local minimum.
 Step number   1 out of a maximum of    2
 All quantities printed in internal units (Hartrees-Bohrs-Radians)
 Second derivative matrix not updated -- analytic derivatives used.
 ITU=  0
     Eigenvalues ---    0.00216   0.04463   0.04463   0.04663   0.04663
     Eigenvalues ---    0.11802   0.12278   0.12278   0.12418   0.17626
     Eigenvalues ---    0.17626   0.29767   0.32959   0.32959   0.33232
     Eigenvalues ---    0.33232   0.34209   0.34444
 Angle between quadratic step and forces=  19.97 degrees.
 Linear search not attempted -- first point.
 Iteration  1 RMS(Cart)=  0.00000819 RMS(Int)=  0.00000000
 Iteration  2 RMS(Cart)=  0.00000000 RMS(Int)=  0.00000000
 ITry= 1 IFail=0 DXMaxC= 1.75D-05 DCOld= 1.00D+10 DXMaxT= 3.00D-01 DXLimC= 3.00D+00 Rises=F
 ClnCor:  largest displacement from symmetrization is 6.30D-09 for atom     4.
 Variable       Old X    -DE/DX   Delta X   Delta X   Delta X     New X
                                 (Linear)    (Quad)   (Total)
    R1        2.06132  -0.00001   0.00000  -0.00002  -0.00002   2.06130
    R2        2.06132  -0.00001   0.00000  -0.00002  -0.00002   2.06130
    R3        2.06132  -0.00001   0.00000  -0.00002  -0.00002   2.06130
    R4        2.88872   0.00000   0.00000   0.00001   0.00001   2.88873
    R5        2.06132  -0.00001   0.00000  -0.00002  -0.00002   2.06130
    R6        2.06132  -0.00001   0.00000  -0.00002  -0.00002   2.06130
    R7        2.06132  -0.00001   0.00000  -0.00002  -0.00002   2.06130
    A1        1.87647   0.00000   0.00000   0.00001   0.00001   1.87648
    A2        1.87647   0.00000   0.00000   0.00001   0.00001   1.87648
    A3        1.94367  -0.00000   0.00000  -0.00001  -0.00001   1.94366
    A4        1.87647   0.00000   0.00000   0.00001   0.00001   1.87648
    A5        1.94367  -0.00000   0.00000  -0.00001  -0.00001   1.94366
    A6        1.94367  -0.00000   0.00000  -0.00001  -0.00001   1.94366
    A7        1.94367  -0.00000   0.00000  -0.00001  -0.00001   1.94366
    A8        1.94367  -0.00000   0.00000  -0.00001  -0.00001   1.94366
    A9        1.94367  -0.00000   0.00000  -0.00001  -0.00001   1.94366
   A10        1.87647   0.00000   0.00000   0.00001   0.00001   1.87648
   A11        1.87647   0.00000   0.00000   0.00001   0.00001   1.87648
   A12        1.87647   0.00000   0.00000   0.00001   0.00001   1.87648
    D1        1.04720  -0.00000   0.00000  -0.00000   0.00000   1.04720
    D2       -3.14159  -0.00000   0.00000  -0.00000  -0.00000  -3.14159
    D3       -1.04720  -0.00000   0.00000   0.00000  -0.00000  -1.04720
    D4       -1.04720  -0.00000   0.00000  -0.00000  -0.00000  -1.04720
    D5        1.04720   0.00000   0.00000  -0.00000   0.00000   1.04720
    D6        3.14159   0.00000   0.00000  -0.00000   0.00000   3.14159
    D7        3.14159  -0.00000   0.00000  -0.00000  -0.00000   3.14159
    D8       -1.04720   0.00000   0.00000   0.00000   0.00000  -1.04720
    D9        1.04720   0.00000   0.00000   0.00000  -0.00000   1.04720
         Item               Value     Threshold  Converged?
 Maximum Force            0.000006     0.000015     YES
 RMS     Force            0.000003     0.000010     YES
 Maximum Displacement     0.000017     0.000060     YES
 RMS     Displacement     0.000008     0.000040     YES
 Predicted change in Energy=-3.054013D-10
 Optimization completed.
    -- Stationary point found.
                           ----------------------------
                           !   Optimized Parameters   !
                           ! (Angstroms and Degrees)  !
 --------------------------                            --------------------------
 ! Name  Definition              Value          Derivative Info.                !
 --------------------------------------------------------------------------------
 ! R1    R(1,2)                  1.0908         -DE/DX =    0.0                 !
 ! R2    R(1,3)                  1.0908         -DE/DX =    0.0                 !
 ! R3    R(1,4)                  1.0908         -DE/DX =    0.0                 !
 ! R4    R(1,5)                  1.5286         -DE/DX =    0.0                 !
 ! R5    R(5,6)                  1.0908         -DE/DX =    0.0                 !
 ! R6    R(5,7)                  1.0908         -DE/DX =    0.0                 !
 ! R7    R(5,8)                  1.0908         -DE/DX =    0.0                 !
 ! A1    A(2,1,3)              107.514          -DE/DX =    0.0                 !
 ! A2    A(2,1,4)              107.514          -DE/DX =    0.0                 !
 ! A3    A(2,1,5)              111.3639         -DE/DX =    0.0                 !
 ! A4    A(3,1,4)              107.514          -DE/DX =    0.0                 !
 ! A5    A(3,1,5)              111.3639         -DE/DX =    0.0                 !
 ! A6    A(4,1,5)              111.3639         -DE/DX =    0.0                 !
 ! A7    A(1,5,6)              111.3639         -DE/DX =    0.0                 !
 ! A8    A(1,5,7)              111.3639         -DE/DX =    0.0                 !
 ! A9    A(1,5,8)              111.3639         -DE/DX =    0.0                 !
 ! A10   A(6,5,7)              107.514          -DE/DX =    0.0                 !
 ! A11   A(6,5,8)              107.514          -DE/DX =    0.0                 !
 ! A12   A(7,5,8)              107.514          -DE/DX =    0.0                 !
 ! D1    D(2,1,5,6)             60.0            -DE/DX =    0.0                 !
 ! D2    D(2,1,5,7)           -180.0            -DE/DX =    0.0                 !
 ! D3    D(2,1,5,8)            -60.0            -DE/DX =    0.0                 !
 ! D4    D(3,1,5,6)            -60.0            -DE/DX =    0.0                 !
 ! D5    D(3,1,5,7)             60.0            -DE/DX =    0.0                 !
 ! D6    D(3,1,5,8)            180.0            -DE/DX =    0.0                 !
 ! D7    D(4,1,5,6)            180.0            -DE/DX =    0.0                 !
 ! D8    D(4,1,5,7)            -60.0            -DE/DX =    0.0                 !
 ! D9    D(4,1,5,8)             60.0            -DE/DX =    0.0                 !
 --------------------------------------------------------------------------------
 GradGradGradGradGradGradGradGradGradGradGradGradGradGradGradGradGradGrad

 Leave Link  103 at Fri Sep  6 16:44:21 2024, MaxMem=  1073741824 cpu:               0.1 elap:               0.0
 (Enter /Users/asuyarger/Applications/G16/g16/l9999.exe)
 Dipole is zero, so no output in dipole orientation.

 ----------------------------------------------------------------------

 Electric dipole moment (input orientation):
 (Debye = 10**-18 statcoulomb cm , SI units = C m)
                  (au)            (Debye)         (10**-30 SI)
   Tot        0.000000D+00      0.000000D+00      0.000000D+00
   x          0.000000D+00      0.000000D+00      0.000000D+00
   y          0.000000D+00      0.000000D+00      0.000000D+00
   z          0.000000D+00      0.000000D+00      0.000000D+00

 Dipole polarizability, Alpha (input orientation).
 (esu units = cm**3 , SI units = C**2 m**2 J**-1)
 Alpha(0;0):
               (au)            (10**-24 esu)      (10**-40 SI)
   iso        0.279371D+02      0.413985D+01      0.460620D+01
   aniso      0.382143D+01      0.566277D+00      0.630068D+00
   xx         0.270880D+02      0.401402D+01      0.446620D+01
   yx         0.600532D+00      0.889897D-01      0.990144D-01
   yy         0.275124D+02      0.407691D+01      0.453618D+01
   zx         0.104007D+01      0.154123D+00      0.171485D+00
   zy         0.147082D+01      0.217953D+00      0.242505D+00
   zz         0.292110D+02      0.432862D+01      0.481624D+01

 ----------------------------------------------------------------------
 1\1\GINC-JEFFSMACSTUDIO\Freq\RB3LYP\6-311G(2d,3p)\C2H6\ROOT\06-Sep-202
 4\0\\#P Geom=AllCheck Guess=TCheck SCRF=Check GenChk RB3LYP/6-311G(2d,
 3p) Freq\\Ethane DFT B3LPY aug-cc-pVTZ Opt Freq - Full - NBO\\0,1\C,-0
 .0794821453,0.2829650754,0.0046347804\H,0.2668442667,-0.7509296169,-0.
 0265159817\H,0.2670235978,0.7728150621,-0.9063160134\H,-1.1696899895,0
 .2650503514,-0.0266143359\C,0.4300757719,1.0035699946,1.2527698696\H,1
 .5202836162,1.0214847186,1.2840189859\H,0.08374936,2.0374646869,1.2839
 206317\H,0.0835700289,0.5137200079,2.1637206634\\Version=EM64M-G16RevA
 .03\State=1-A1G\HF=-79.8604664\RMSD=1.726e-09\RMSF=3.651e-06\ZeroPoint
 =0.0744549\Thermal=0.0779449\Dipole=0.,0.,0.\DipoleDeriv=0.1003725,-0.
 0055642,-0.0096399,-0.0055653,0.0964345,-0.013634,-0.0096405,-0.013632
 2,0.0806952,0.03582,0.0690384,-0.0074472,0.0509327,-0.1555459,-0.04398
 96,-0.0178978,-0.0144197,0.027226,0.0357965,-0.0409751,0.0561001,-0.04
 09771,0.0068483,0.0793025,0.0351893,0.0497355,-0.1351453,-0.1719881,-0
 .0224983,-0.0390129,-0.0043901,0.0522626,-0.0216794,-0.0076511,-0.0216
 832,0.027225,0.1003725,-0.0055642,-0.0096399,-0.0055653,0.0964345,-0.0
 13634,-0.0096405,-0.0136322,0.0806952,-0.1719881,-0.0224983,-0.0390129
 ,-0.0043901,0.0522626,-0.0216794,-0.0076511,-0.0216832,0.027225,0.0358
 2,0.0690384,-0.0074472,0.0509327,-0.1555459,-0.0439896,-0.0178978,-0.0
 144197,0.027226,0.0357965,-0.0409751,0.0561001,-0.0409771,0.0068483,0.
 0793025,0.0351893,0.0497355,-0.1351453\Polar=27.0879671,0.6005324,27.5
 123609,1.0400736,1.470818,29.2109572\PolarDeriv=6.900557,0.6307818,-2.
 908557,1.0952576,-0.003257,-2.9132179,0.0881124,-2.5244779,5.5559899,-
 0.0031601,1.0914377,-4.1190261,0.1548347,-0.0032295,0.1509124,-2.52913
 05,-3.5764726,2.3363766,0.3998457,-1.5135174,2.1167273,-0.3128125,0.36
 78695,0.8846326,-1.4367085,1.5154289,-8.4902442,0.0917714,-1.2897065,-
 1.153655,-0.034167,0.10361,-0.2591583,0.5817994,-0.786794,-0.5476226,0
 .4005584,0.4861425,0.8742048,-1.467731,-0.3496396,2.1283329,0.6888935,
 0.730787,1.112949,-0.3497264,-1.714521,3.0087994,-1.2615791,-0.3615257
 ,-1.5167122,1.3675222,1.9331213,-7.23831,-9.1232445,-0.7650013,-1.0748
 495,-1.3263534,-0.2662838,-1.3825565,-0.1724053,-0.9472349,-0.7622743,
 0.0099026,-0.2769139,0.4497513,-0.3000113,0.0098232,0.0059637,-0.93594
 62,0.2864347,-0.5479854,-6.900557,-0.6307818,2.908557,-1.0952576,0.003
 257,2.9132179,-0.0881124,2.5244779,-5.5559899,0.0031601,-1.0914377,4.1
 190261,-0.1548347,0.0032295,-0.1509124,2.5291305,3.5764726,-2.3363766,
 9.1232445,0.7650013,1.0748495,1.3263534,0.2662838,1.3825565,0.1724053,
 0.9472349,0.7622743,-0.0099026,0.2769139,-0.4497513,0.3000113,-0.00982
 32,-0.0059637,0.9359462,-0.2864347,0.5479854,-0.3998457,1.5135174,-2.1
 167273,0.3128125,-0.3678695,-0.8846326,1.4367085,-1.5154289,8.4902442,
 -0.0917714,1.2897065,1.153655,0.034167,-0.10361,0.2591583,-0.5817994,0
 .786794,0.5476226,-0.4005584,-0.4861425,-0.8742048,1.467731,0.3496396,
 -2.1283329,-0.6888935,-0.730787,-1.112949,0.3497264,1.714521,-3.008799
 4,1.2615791,0.3615257,1.5167122,-1.3675222,-1.9331213,7.23831\HyperPol
 ar=0.,0.,0.,0.,0.,0.,0.,0.,0.,0.\Quadrupole=0.111993,0.0559994,-0.1679
 924,-0.0791931,-0.1371676,-0.1939793\PG=D03D [C3(C1.C1),3SGD(H2)]\NIma
 g=0\\0.55141887,-0.01532652,0.54058265,-0.02654611,-0.03754110,0.49723
 296,-0.07567061,0.08008865,0.00174552,0.07775277,0.07939901,-0.2786768
 0,-0.00322307,-0.08712796,0.30386126,0.00134746,-0.00209676,-0.0474440
 0,0.00039965,0.00612909,0.05090564,-0.07569854,-0.03854284,0.07026658,
 0.00333903,0.00476761,-0.01017355,0.07778362,-0.03854303,-0.10292237,0
 .09933589,-0.01120008,-0.01400693,0.02548974,0.04392155,0.10880733,0.0
 6947011,0.09820966,-0.22317070,-0.00095688,0.00028842,0.00087236,-0.07
 529397,-0.10644183,0.24592872,-0.30624280,-0.00207367,-0.00364398,-0.0
 1005787,0.00049628,0.00032240,-0.01006354,0.00003288,0.00058973,0.3335
 0161,-0.00138384,-0.04810411,0.00057192,0.03171754,0.00132484,0.000021
 62,-0.01593310,-0.00060705,-0.00080748,0.00324086,0.04811170,-0.002449
 44,0.00057184,-0.04744469,-0.00008990,0.00031107,-0.00106251,0.0274229
 7,-0.00110005,0.00087504,0.00567137,0.00241927,0.05090636,-0.09218503,
 -0.01750570,-0.03032089,0.00392289,0.00434056,0.00963187,0.00392527,0.
 00617405,0.00857944,-0.00946996,-0.01715467,-0.02971240,0.55141887,-0.
 01750570,-0.10456234,-0.04287917,-0.01241950,-0.01399995,-0.02810973,0
 .00617220,0.00828754,0.01212865,-0.00039276,-0.00060437,-0.00028348,-0
 .01532652,0.54058265,-0.03032089,-0.04287917,-0.15407584,-0.00004205,-
 0.00073750,-0.00093504,-0.01077691,-0.01524013,-0.02322490,-0.00068212
 ,-0.00028694,-0.00093777,-0.02654611,-0.03754110,0.49723296,-0.0094699
 6,-0.00039276,-0.00068212,0.00053506,-0.00052269,0.00006087,0.00053526
 ,0.00031393,-0.00042222,0.00126214,-0.00109481,-0.00189605,-0.30624280
 ,-0.00207367,-0.00364398,0.33350161,-0.01715467,-0.00060437,-0.0002869
 4,-0.00011666,0.00030923,0.00083778,0.00072478,0.00050040,0.00044712,-
 0.00109481,-0.00093071,-0.00320331,-0.00138384,-0.04810411,0.00057192,
 0.00324086,0.04811170,-0.02971240,-0.00028348,-0.00093777,0.00076959,0
 .00033652,0.00124223,0.00028383,0.00094822,0.00105086,-0.00189605,-0.0
 0320331,-0.00462953,-0.00244944,0.00057184,-0.04744469,0.00567137,0.00
 241927,0.05090636,0.00392289,-0.01241950,-0.00004205,0.00000094,-0.001
 54050,-0.00238809,0.00017786,0.00059852,0.00056213,0.00053506,-0.00011
 666,0.00076959,-0.07567061,0.08008865,0.00174552,-0.01005787,0.0317175
 4,-0.00008990,0.07775277,0.00434056,-0.01399995,-0.00073750,-0.0015405
 0,0.00033056,-0.00285540,0.00018776,0.00085770,-0.00024911,-0.00052269
 ,0.00030923,0.00033652,0.07939901,-0.27867680,-0.00322307,0.00049628,0
 .00132484,0.00031107,-0.08712796,0.30386126,0.00963187,-0.02810973,-0.
 00093504,-0.00238809,-0.00285540,-0.00462960,0.00079940,0.00058359,0.0
 0105097,0.00006087,0.00083778,0.00124223,0.00134746,-0.00209676,-0.047
 44400,0.00032240,0.00002162,-0.00106251,0.00039965,0.00612909,0.050905
 64,0.00392527,0.00617220,-0.01077691,0.00017786,0.00018776,0.00079940,
 0.00000100,-0.00129786,-0.00252835,0.00053526,0.00072478,0.00028383,-0
 .07569854,-0.03854284,0.07026658,-0.01006354,-0.01593310,0.02742297,0.
 00333903,0.00476761,-0.01017355,0.07778362,0.00617405,0.00828754,-0.01
 524013,0.00059852,0.00085770,0.00058359,-0.00129786,-0.00091671,-0.003
 57536,0.00031393,0.00050040,0.00094822,-0.03854303,-0.10292237,0.09933
 589,0.00003288,-0.00060705,-0.00110005,-0.01120008,-0.01400693,0.02548
 974,0.04392155,0.10880733,0.00857944,0.01212865,-0.02322490,0.00056213
 ,-0.00024911,0.00105097,-0.00252835,-0.00357536,-0.00338239,-0.0004222
 2,0.00044712,0.00105086,0.06947011,0.09820966,-0.22317070,0.00058973,-
 0.00080748,0.00087504,-0.00095688,0.00028842,0.00087236,-0.07529397,-0
 .10644183,0.24592872\\0.00000268,0.00000379,0.00000656,0.00000153,-0.0
 0000539,-0.00000062,0.00000153,0.00000216,-0.00000498,-0.00000559,-0.0
 0000036,-0.00000062,-0.00000268,-0.00000379,-0.00000656,0.00000559,0.0
 0000036,0.00000062,-0.00000153,0.00000539,0.00000062,-0.00000153,-0.00
 000216,0.00000498\\\@


  THE LARGE PRINT GIVETH,
  AND THE SMALL PRINT TAKETH AWAY.

                     -- TOM WAITS
 Job cpu time:       0 days  0 hours  0 minutes  8.1 seconds.
 Elapsed time:       0 days  0 hours  0 minutes  7.6 seconds.
 File lengths (MBytes):  RWF=     13 Int=      0 D2E=      0 Chk=      2 Scr=      1
 Normal termination of Gaussian 16 at Fri Sep  6 16:44:21 2024.
