 Entering Gaussian System, Link 0=g16
 Input=/Users/asuyarger/Downloads/CH4_DFT_WB97XD_apVTZ_Opt_Freq_Full_NBO_Raman.gjf
 Output=/Users/asuyarger/Downloads/CH4_DFT_WB97XD_apVTZ_Opt_Freq_Full_NBO_Raman.log
 Initial command:
 /Users/asuyarger/Applications/G16/g16/l1.exe "/Users/asuyarger/Applications/G16/scratch/Gau-92889.inp" -scrdir="/Users/asuyarger/Applications/G16/scratch/"
 Entering Link 1 = /Users/asuyarger/Applications/G16/g16/l1.exe PID=     92890.
  
 Copyright (c) 1988,1990,1992,1993,1995,1998,2003,2009,2016,
            Gaussian, Inc.  All Rights Reserved.
  
 This is part of the Gaussian(R) 16 program.  It is based on
 the Gaussian(R) 09 system (copyright 2009, Gaussian, Inc.),
 the Gaussian(R) 03 system (copyright 2003, Gaussian, Inc.),
 the Gaussian(R) 98 system (copyright 1998, Gaussian, Inc.),
 the Gaussian(R) 94 system (copyright 1995, Gaussian, Inc.),
 the Gaussian 92(TM) system (copyright 1992, Gaussian, Inc.),
 the Gaussian 90(TM) system (copyright 1990, Gaussian, Inc.),
 the Gaussian 88(TM) system (copyright 1988, Gaussian, Inc.),
 the Gaussian 86(TM) system (copyright 1986, Carnegie Mellon
 University), and the Gaussian 82(TM) system (copyright 1983,
 Carnegie Mellon University). Gaussian is a federally registered
 trademark of Gaussian, Inc.
  
 This software contains proprietary and confidential information,
 including trade secrets, belonging to Gaussian, Inc.
  
 This software is provided under written license and may be
 used, copied, transmitted, or stored only in accord with that
 written license.
  
 The following legend is applicable only to US Government
 contracts under FAR:
  
                    RESTRICTED RIGHTS LEGEND
  
 Use, reproduction and disclosure by the US Government is
 subject to restrictions as set forth in subparagraphs (a)
 and (c) of the Commercial Computer Software - Restricted
 Rights clause in FAR 52.227-19.
  
 Gaussian, Inc.
 340 Quinnipiac St., Bldg. 40, Wallingford CT 06492
  
  
 ---------------------------------------------------------------
 Warning -- This program may not be used in any manner that
 competes with the business of Gaussian, Inc. or will provide
 assistance to any competitor of Gaussian, Inc.  The licensee
 of this program is prohibited from giving any competitor of
 Gaussian, Inc. access to this program.  By using this program,
 the user acknowledges that Gaussian, Inc. is engaged in the
 business of creating and licensing software in the field of
 computational chemistry and represents and warrants to the
 licensee that it is not a competitor of Gaussian, Inc. and that
 it will not use this program in any manner prohibited above.
 ---------------------------------------------------------------
  

 Cite this work as:
 Gaussian 16, Revision A.03,
 M. J. Frisch, G. W. Trucks, H. B. Schlegel, G. E. Scuseria, 
 M. A. Robb, J. R. Cheeseman, G. Scalmani, V. Barone, 
 G. A. Petersson, H. Nakatsuji, X. Li, M. Caricato, A. V. Marenich, 
 J. Bloino, B. G. Janesko, R. Gomperts, B. Mennucci, H. P. Hratchian, 
 J. V. Ortiz, A. F. Izmaylov, J. L. Sonnenberg, D. Williams-Young, 
 F. Ding, F. Lipparini, F. Egidi, J. Goings, B. Peng, A. Petrone, 
 T. Henderson, D. Ranasinghe, V. G. Zakrzewski, J. Gao, N. Rega, 
 G. Zheng, W. Liang, M. Hada, M. Ehara, K. Toyota, R. Fukuda, 
 J. Hasegawa, M. Ishida, T. Nakajima, Y. Honda, O. Kitao, H. Nakai, 
 T. Vreven, K. Throssell, J. A. Montgomery, Jr., J. E. Peralta, 
 F. Ogliaro, M. J. Bearpark, J. J. Heyd, E. N. Brothers, K. N. Kudin, 
 V. N. Staroverov, T. A. Keith, R. Kobayashi, J. Normand, 
 K. Raghavachari, A. P. Rendell, J. C. Burant, S. S. Iyengar, 
 J. Tomasi, M. Cossi, J. M. Millam, M. Klene, C. Adamo, R. Cammi, 
 J. W. Ochterski, R. L. Martin, K. Morokuma, O. Farkas, 
 J. B. Foresman, and D. J. Fox, Gaussian, Inc., Wallingford CT, 2016.
 
 ******************************************
 Gaussian 16:  EM64M-G16RevA.03 25-Dec-2016
                 6-Sep-2024 
 ******************************************
 %nprocshared=4
 Will use up to    4 processors via shared memory.
 %mem=4GB
 %chk=CH4_DFT_WB97XD_apVTZ_Opt_Freq_Full_NBO_Raman.chk
 ----------------------------------------------------------------------
 #p opt=tight freq=raman wb97xd/aug-cc-pvtz guess=save pop=(hirshfeld,f
 ull,nbo) geom=connectivity polar
 ----------------------------------------------------------------------
 1/7=10,18=20,19=15,26=3,38=1,57=2/1,3;
 2/9=110,12=2,17=6,18=5,40=1/2;
 3/5=16,6=1,7=10,11=2,25=1,30=1,71=1,74=-58/1,2,3;
 4//1;
 5/5=2,38=5,98=1/2;
 6/7=3,28=1,40=1,79=1/1,7;
 7//1,2,3,16;
 1/7=10,18=20,19=15,26=3/3(2);
 2/9=110/2;
 99//99;
 2/9=110/2;
 3/5=16,6=1,7=10,11=2,25=1,30=1,71=1,74=-58/1,2,3;
 4/5=5,16=3,69=1/1;
 5/5=2,38=5,98=1/2;
 7//1,2,3,16;
 1/7=10,18=20,19=15,26=3/3(-5);
 2/9=110/2;
 6/7=3,19=2,28=1,40=1,79=1/1,7;
 99/9=1/99;
 Leave Link    1 at Fri Sep  6 16:36:09 2024, MaxMem=   536870912 cpu:               0.1 elap:               0.0
 (Enter /Users/asuyarger/Applications/G16/g16/l101.exe)
 -----------------------------------------------
 CH4 DFT B3LPY aug-cc-pVTZ Opt Freq - Full - NBO
 -----------------------------------------------
 Symbolic Z-matrix:
 Charge =  0 Multiplicity = 1
 C                    -0.08137   0.28029   0. 
 H                     0.27528  -0.72852   0. 
 H                     0.2753    0.78469   0.87365 
 H                     0.2753    0.78469  -0.87365 
 H                    -1.15137   0.2803    0. 
 
 ITRead=  0  0  0  0  0
 MicOpt= -1 -1 -1 -1 -1
 NAtoms=      5 NQM=        5 NQMF=       0 NMMI=      0 NMMIF=      0
                NMic=       0 NMicF=      0.
                    Isotopes and Nuclear Properties:
 (Nuclear quadrupole moments (NQMom) in fm**2, nuclear magnetic moments (NMagM)
  in nuclear magnetons)

  Atom         1           2           3           4           5
 IAtWgt=          12           1           1           1           1
 AtmWgt=  12.0000000   1.0078250   1.0078250   1.0078250   1.0078250
 NucSpn=           0           1           1           1           1
 AtZEff=  -0.0000000  -0.0000000  -0.0000000  -0.0000000  -0.0000000
 NQMom=    0.0000000   0.0000000   0.0000000   0.0000000   0.0000000
 NMagM=    0.0000000   2.7928460   2.7928460   2.7928460   2.7928460
 AtZNuc=   6.0000000   1.0000000   1.0000000   1.0000000   1.0000000
 Leave Link  101 at Fri Sep  6 16:36:10 2024, MaxMem=   536870912 cpu:               0.5 elap:               0.1
 (Enter /Users/asuyarger/Applications/G16/g16/l103.exe)

 GradGradGradGradGradGradGradGradGradGradGradGradGradGradGradGradGradGrad
 Berny optimization.
 Initialization pass.
                           ----------------------------
                           !    Initial Parameters    !
                           ! (Angstroms and Degrees)  !
 --------------------------                            --------------------------
 ! Name  Definition              Value          Derivative Info.                !
 --------------------------------------------------------------------------------
 ! R1    R(1,2)                  1.07           estimate D2E/DX2                !
 ! R2    R(1,3)                  1.07           estimate D2E/DX2                !
 ! R3    R(1,4)                  1.07           estimate D2E/DX2                !
 ! R4    R(1,5)                  1.07           estimate D2E/DX2                !
 ! A1    A(2,1,3)              109.4712         estimate D2E/DX2                !
 ! A2    A(2,1,4)              109.4712         estimate D2E/DX2                !
 ! A3    A(2,1,5)              109.4712         estimate D2E/DX2                !
 ! A4    A(3,1,4)              109.4712         estimate D2E/DX2                !
 ! A5    A(3,1,5)              109.4712         estimate D2E/DX2                !
 ! A6    A(4,1,5)              109.4712         estimate D2E/DX2                !
 ! D1    D(2,1,4,3)           -120.0            estimate D2E/DX2                !
 ! D2    D(2,1,5,3)            120.0            estimate D2E/DX2                !
 ! D3    D(2,1,5,4)           -120.0            estimate D2E/DX2                !
 ! D4    D(3,1,5,4)            120.0            estimate D2E/DX2                !
 --------------------------------------------------------------------------------
 Trust Radius=3.00D-01 FncErr=1.00D-07 GrdErr=1.00D-06 EigMax=2.50D+02 EigMin=1.00D-04
 Number of steps in this run=     24 maximum allowed number of steps=    100.
 GradGradGradGradGradGradGradGradGradGradGradGradGradGradGradGradGradGrad

 Leave Link  103 at Fri Sep  6 16:36:10 2024, MaxMem=   536870912 cpu:               0.0 elap:               0.0
 (Enter /Users/asuyarger/Applications/G16/g16/l202.exe)
                          Input orientation:                          
 ---------------------------------------------------------------------
 Center     Atomic      Atomic             Coordinates (Angstroms)
 Number     Number       Type             X           Y           Z
 ---------------------------------------------------------------------
      1          6           0       -0.081374    0.280289    0.000000
      2          1           0        0.275280   -0.728521    0.000000
      3          1           0        0.275299    0.784688    0.873651
      4          1           0        0.275299    0.784688   -0.873651
      5          1           0       -1.151374    0.280302    0.000000
 ---------------------------------------------------------------------
                    Distance matrix (angstroms):
                    1          2          3          4          5
     1  C    0.000000
     2  H    1.070000   0.000000
     3  H    1.070000   1.747303   0.000000
     4  H    1.070000   1.747303   1.747303   0.000000
     5  H    1.070000   1.747303   1.747303   1.747303   0.000000
 Stoichiometry    CH4
 Framework group  TD[O(C),4C3(H)]
 Deg. of freedom     1
 Full point group                 TD      NOp  24
 Largest Abelian subgroup         D2      NOp   4
 Largest concise Abelian subgroup D2      NOp   4
                         Standard orientation:                         
 ---------------------------------------------------------------------
 Center     Atomic      Atomic             Coordinates (Angstroms)
 Number     Number       Type             X           Y           Z
 ---------------------------------------------------------------------
      1          6           0        0.000000    0.000000    0.000000
      2          1           0        0.617765    0.617765    0.617765
      3          1           0       -0.617765   -0.617765    0.617765
      4          1           0       -0.617765    0.617765   -0.617765
      5          1           0        0.617765   -0.617765   -0.617765
 ---------------------------------------------------------------------
 Rotational constants (GHZ):         164.2463651         164.2463651         164.2463651
 Leave Link  202 at Fri Sep  6 16:36:10 2024, MaxMem=   536870912 cpu:               0.0 elap:               0.0
 (Enter /Users/asuyarger/Applications/G16/g16/l301.exe)
 Standard basis: Aug-CC-pVTZ (5D, 7F)
 Ernie: Thresh=  0.10000D-02 Tol=  0.10000D-05 Strict=F.
 Ernie:  3 primitive shells out of 74 were deleted.
 There are    41 symmetry adapted cartesian basis functions of A   symmetry.
 There are    38 symmetry adapted cartesian basis functions of B1  symmetry.
 There are    38 symmetry adapted cartesian basis functions of B2  symmetry.
 There are    38 symmetry adapted cartesian basis functions of B3  symmetry.
 There are    36 symmetry adapted basis functions of A   symmetry.
 There are    34 symmetry adapted basis functions of B1  symmetry.
 There are    34 symmetry adapted basis functions of B2  symmetry.
 There are    34 symmetry adapted basis functions of B3  symmetry.
   138 basis functions,   180 primitive gaussians,   155 cartesian basis functions
     5 alpha electrons        5 beta electrons
       nuclear repulsion energy        13.6865179973 Hartrees.
 IExCor= 4639 DFT=T Ex+Corr=wB97XD ExCW=0 ScaHFX=  1.000000
 ScaDFX=  1.000000  1.000000  1.000000  1.000000 ScalE2=  1.000000  1.000000
 IRadAn=      5 IRanWt=     -1 IRanGd=            0 ICorTp=0 IEmpDi=121
 HFx  wShort=  0.000000 wLong=  0.200000 cFull=  0.222036 cShort=  0.000000 cLong=  0.777964
 DFx  wShort=  0.000000 wLong=  0.200000 cFull=  0.000000 cShort=  0.000000 cLong=  1.000000
 NAtoms=    5 NActive=    5 NUniq=    2 SFac= 4.00D+00 NAtFMM=   60 NAOKFM=F Big=F
 Integral buffers will be    131072 words long.
 Raffenetti 2 integral format.
 Two-electron integral symmetry is turned on.
 R6Disp:  Grimme-D2 Dispersion energy=       -0.0003584935 Hartrees.
 Nuclear repulsion after empirical dispersion term =       13.6861595038 Hartrees.
 Leave Link  301 at Fri Sep  6 16:36:10 2024, MaxMem=   536870912 cpu:               0.1 elap:               0.0
 (Enter /Users/asuyarger/Applications/G16/g16/l302.exe)
 NPDir=0 NMtPBC=     1 NCelOv=     1 NCel=       1 NClECP=     1 NCelD=      1
         NCelK=      1 NCelE2=     1 NClLst=     1 CellRange=     0.0.
 One-electron integrals computed using PRISM.
 One-electron integral symmetry used in STVInt
 NBasis=   138 RedAO= T EigKep=  7.75D-05  NBF=    36    34    34    34
 NBsUse=   138 1.00D-06 EigRej= -1.00D+00 NBFU=    36    34    34    34
 Precomputing XC quadrature grid using
 IXCGrd= 4 IRadAn=           5 IRanWt=          -1 IRanGd=           0 AccXCQ= 0.00D+00.
 Generated NRdTot=       0 NPtTot=           0 NUsed=           0 NTot=          32
 NSgBfM=   155   155   155   155   155 MxSgAt=     5 MxSgA2=     5.
 Leave Link  302 at Fri Sep  6 16:36:10 2024, MaxMem=   536870912 cpu:               0.4 elap:               0.1
 (Enter /Users/asuyarger/Applications/G16/g16/l303.exe)
 DipDrv:  MaxL=1.
 Leave Link  303 at Fri Sep  6 16:36:10 2024, MaxMem=   536870912 cpu:               0.1 elap:               0.0
 (Enter /Users/asuyarger/Applications/G16/g16/l401.exe)
 ExpMin= 2.53D-02 ExpMax= 8.24D+03 ExpMxC= 2.81D+02 IAcc=3 IRadAn=         5 AccDes= 0.00D+00
 Harris functional with IExCor= 4639 and IRadAn=       5 diagonalized for initial guess.
 HarFok:  IExCor= 4639 AccDes= 0.00D+00 IRadAn=         5 IDoV= 1 UseB2=F ITyADJ=14
 ICtDFT=  3500011 ScaDFX=  1.000000  1.000000  1.000000  1.000000
 FoFCou: FMM=F IPFlag=           0 FMFlag=      100000 FMFlg1=           0
         NFxFlg=           0 DoJE=T BraDBF=F KetDBF=T FulRan=T
         wScrn=  0.000000 ICntrl=       500 IOpCl=  0 I1Cent=   200000004 NGrid=           0
         NMat0=    1 NMatS0=      1 NMatT0=    0 NMatD0=    1 NMtDS0=    0 NMtDT0=    0
 Petite list used in FoFCou.
 Harris En= -38.2744562403741    
 JPrj=0 DoOrth=F DoCkMO=F.
 Initial guess orbital symmetries:
       Occupied  (A1) (A1) (T2) (T2) (T2)
       Virtual   (A1) (T2) (T2) (T2) (T2) (T2) (T2) (A1) (T2) (T2)
                 (T2) (E) (E) (T2) (T2) (T2) (A1) (T1) (T1) (T1)
                 (A1) (T2) (T2) (T2) (T2) (T2) (T2) (E) (E) (T2)
                 (T2) (T2) (A1) (T2) (T2) (T2) (T1) (T1) (T1) (E)
                 (E) (T2) (T2) (T2) (A1) (T2) (T2) (T2) (T1) (T1)
                 (T1) (E) (E) (T2) (T2) (T2) (E) (E) (A1) (T2)
                 (T2) (T2) (A1) (T1) (T1) (T1) (T2) (T2) (T2) (T2)
                 (T2) (T2) (T1) (T1) (T1) (T2) (T2) (T2) (E) (E)
                 (A1) (A1) (T2) (T2) (T2) (E) (E) (T2) (T2) (T2)
                 (T1) (T1) (T1) (T2) (T2) (T2) (T2) (T2) (T2) (T1)
                 (T1) (T1) (E) (E) (A1) (T2) (T2) (T2) (E) (E)
                 (T2) (T2) (T2) (T1) (T1) (T1) (T2) (T2) (T2) (A1)
                 (T1) (T1) (T1) (A1) (E) (E) (T2) (T2) (T2) (T2)
                 (T2) (T2) (A1)
 The electronic state of the initial guess is 1-A1.
 Leave Link  401 at Fri Sep  6 16:36:10 2024, MaxMem=   536870912 cpu:               0.7 elap:               0.2
 (Enter /Users/asuyarger/Applications/G16/g16/l502.exe)
 Keep R1 ints in memory in symmetry-blocked form, NReq=115031777.
 FoFCou: FMM=F IPFlag=           0 FMFlag=           0 FMFlg1=           0
         NFxFlg=           0 DoJE=F BraDBF=F KetDBF=F FulRan=T
         wScrn=  0.000000 ICntrl=       600 IOpCl=  0 I1Cent=           0 NGrid=           0
         NMat0=    1 NMatS0=   9591 NMatT0=    0 NMatD0=    1 NMtDS0=    0 NMtDT0=    0
 Petite list used in FoFCou.
 Closed shell SCF:
 Using DIIS extrapolation, IDIIS=  1040.
 NGot=   536870912 LenX=   525291546 LenY=   525267080
 Requested convergence on RMS density matrix=1.00D-08 within 128 cycles.
 Requested convergence on MAX density matrix=1.00D-06.
 Requested convergence on             energy=1.00D-06.
 No special actions if energy rises.

 Cycle   1  Pass 1  IDiag  1:
 E= -40.4897068160603    
 DIIS: error= 6.00D-02 at cycle   1 NSaved=   1.
 NSaved= 1 IEnMin= 1 EnMin= -40.4897068160603     IErMin= 1 ErrMin= 6.00D-02
 ErrMax= 6.00D-02  0.00D+00 EMaxC= 1.00D-01 BMatC= 8.62D-02 BMatP= 8.62D-02
 IDIUse=3 WtCom= 4.00D-01 WtEn= 6.00D-01
 Coeff-Com:  0.100D+01
 Coeff-En:   0.100D+01
 Coeff:      0.100D+01
 Gap=     0.459 Goal=   None    Shift=    0.000
 GapD=    0.459 DampG=2.000 DampE=0.500 DampFc=1.0000 IDamp=-1.
 RMSDP=2.17D-03 MaxDP=1.01D-01              OVMax= 7.60D-02

 Cycle   2  Pass 1  IDiag  1:
 E= -40.5080841587385     Delta-E=       -0.018377342678 Rises=F Damp=F
 DIIS: error= 1.56D-02 at cycle   2 NSaved=   2.
 NSaved= 2 IEnMin= 2 EnMin= -40.5080841587385     IErMin= 2 ErrMin= 1.56D-02
 ErrMax= 1.56D-02  0.00D+00 EMaxC= 1.00D-01 BMatC= 1.18D-02 BMatP= 8.62D-02
 IDIUse=3 WtCom= 8.44D-01 WtEn= 1.56D-01
 Coeff-Com:  0.200D+00 0.800D+00
 Coeff-En:   0.148D+00 0.852D+00
 Coeff:      0.192D+00 0.808D+00
 Gap=     0.533 Goal=   None    Shift=    0.000
 RMSDP=8.58D-04 MaxDP=2.39D-02 DE=-1.84D-02 OVMax= 4.18D-02

 Cycle   3  Pass 1  IDiag  1:
 E= -40.5173209364401     Delta-E=       -0.009236777702 Rises=F Damp=F
 DIIS: error= 5.73D-03 at cycle   3 NSaved=   3.
 NSaved= 3 IEnMin= 3 EnMin= -40.5173209364401     IErMin= 3 ErrMin= 5.73D-03
 ErrMax= 5.73D-03  0.00D+00 EMaxC= 1.00D-01 BMatC= 2.22D-03 BMatP= 1.18D-02
 IDIUse=3 WtCom= 9.43D-01 WtEn= 5.73D-02
 Coeff-Com:  0.230D-01 0.309D+00 0.668D+00
 Coeff-En:   0.000D+00 0.134D-01 0.987D+00
 Coeff:      0.216D-01 0.292D+00 0.687D+00
 Gap=     0.512 Goal=   None    Shift=    0.000
 RMSDP=2.27D-04 MaxDP=5.83D-03 DE=-9.24D-03 OVMax= 1.30D-02

 Cycle   4  Pass 1  IDiag  1:
 E= -40.5192403072190     Delta-E=       -0.001919370779 Rises=F Damp=F
 DIIS: error= 3.64D-04 at cycle   4 NSaved=   4.
 NSaved= 4 IEnMin= 4 EnMin= -40.5192403072190     IErMin= 4 ErrMin= 3.64D-04
 ErrMax= 3.64D-04  0.00D+00 EMaxC= 1.00D-01 BMatC= 6.00D-06 BMatP= 2.22D-03
 IDIUse=3 WtCom= 9.96D-01 WtEn= 3.64D-03
 Coeff-Com: -0.360D-02-0.516D-01-0.579D-01 0.111D+01
 Coeff-En:   0.000D+00 0.000D+00 0.000D+00 0.100D+01
 Coeff:     -0.359D-02-0.514D-01-0.577D-01 0.111D+01
 Gap=     0.513 Goal=   None    Shift=    0.000
 RMSDP=1.18D-05 MaxDP=4.99D-04 DE=-1.92D-03 OVMax= 7.79D-04

 Cycle   5  Pass 1  IDiag  1:
 E= -40.5192466031301     Delta-E=       -0.000006295911 Rises=F Damp=F
 DIIS: error= 3.49D-05 at cycle   5 NSaved=   5.
 NSaved= 5 IEnMin= 5 EnMin= -40.5192466031301     IErMin= 5 ErrMin= 3.49D-05
 ErrMax= 3.49D-05  0.00D+00 EMaxC= 1.00D-01 BMatC= 4.26D-08 BMatP= 6.00D-06
 IDIUse=1 WtCom= 1.00D+00 WtEn= 0.00D+00
 Coeff-Com:  0.325D-04-0.226D-03-0.450D-02-0.149D+00 0.115D+01
 Coeff:      0.325D-04-0.226D-03-0.450D-02-0.149D+00 0.115D+01
 Gap=     0.513 Goal=   None    Shift=    0.000
 RMSDP=4.94D-06 MaxDP=8.27D-05 DE=-6.30D-06 OVMax= 1.42D-04

 Cycle   6  Pass 1  IDiag  1:
 E= -40.5192466989709     Delta-E=       -0.000000095841 Rises=F Damp=F
 DIIS: error= 2.84D-06 at cycle   6 NSaved=   6.
 NSaved= 6 IEnMin= 6 EnMin= -40.5192466989709     IErMin= 6 ErrMin= 2.84D-06
 ErrMax= 2.84D-06  0.00D+00 EMaxC= 1.00D-01 BMatC= 4.09D-10 BMatP= 4.26D-08
 IDIUse=1 WtCom= 1.00D+00 WtEn= 0.00D+00
 Coeff-Com:  0.343D-05 0.342D-03 0.948D-03 0.215D-01-0.250D+00 0.123D+01
 Coeff:      0.343D-05 0.342D-03 0.948D-03 0.215D-01-0.250D+00 0.123D+01
 Gap=     0.513 Goal=   None    Shift=    0.000
 RMSDP=9.12D-07 MaxDP=1.51D-05 DE=-9.58D-08 OVMax= 1.72D-05

 Cycle   7  Pass 1  IDiag  1:
 E= -40.5192467000644     Delta-E=       -0.000000001093 Rises=F Damp=F
 DIIS: error= 2.34D-07 at cycle   7 NSaved=   7.
 NSaved= 7 IEnMin= 7 EnMin= -40.5192467000644     IErMin= 7 ErrMin= 2.34D-07
 ErrMax= 2.34D-07  0.00D+00 EMaxC= 1.00D-01 BMatC= 2.31D-12 BMatP= 4.09D-10
 IDIUse=1 WtCom= 1.00D+00 WtEn= 0.00D+00
 Coeff-Com:  0.223D-05-0.179D-04-0.281D-04-0.154D-02 0.200D-01-0.135D+00
 Coeff-Com:  0.112D+01
 Coeff:      0.223D-05-0.179D-04-0.281D-04-0.154D-02 0.200D-01-0.135D+00
 Coeff:      0.112D+01
 Gap=     0.513 Goal=   None    Shift=    0.000
 RMSDP=7.75D-08 MaxDP=1.98D-06 DE=-1.09D-09 OVMax= 9.69D-07

 Cycle   8  Pass 1  IDiag  1:
 E= -40.5192467000687     Delta-E=       -0.000000000004 Rises=F Damp=F
 DIIS: error= 2.85D-08 at cycle   8 NSaved=   8.
 NSaved= 8 IEnMin= 8 EnMin= -40.5192467000687     IErMin= 8 ErrMin= 2.85D-08
 ErrMax= 2.85D-08  0.00D+00 EMaxC= 1.00D-01 BMatC= 3.15D-14 BMatP= 2.31D-12
 IDIUse=1 WtCom= 1.00D+00 WtEn= 0.00D+00
 Coeff-Com: -0.408D-06-0.759D-07 0.103D-05 0.174D-03-0.199D-02 0.134D-01
 Coeff-Com: -0.189D+00 0.118D+01
 Coeff:     -0.408D-06-0.759D-07 0.103D-05 0.174D-03-0.199D-02 0.134D-01
 Coeff:     -0.189D+00 0.118D+01
 Gap=     0.513 Goal=   None    Shift=    0.000
 RMSDP=1.95D-08 MaxDP=3.49D-07 DE=-4.31D-12 OVMax= 1.19D-07

 Cycle   9  Pass 1  IDiag  1:
 E= -40.5192467000692     Delta-E=       -0.000000000000 Rises=F Damp=F
 DIIS: error= 1.70D-09 at cycle   9 NSaved=   9.
 NSaved= 9 IEnMin= 9 EnMin= -40.5192467000692     IErMin= 9 ErrMin= 1.70D-09
 ErrMax= 1.70D-09  0.00D+00 EMaxC= 1.00D-01 BMatC= 8.17D-17 BMatP= 3.15D-14
 IDIUse=1 WtCom= 1.00D+00 WtEn= 0.00D+00
 Coeff-Com:  0.404D-07-0.699D-07-0.105D-06-0.157D-04 0.194D-03-0.132D-02
 Coeff-Com:  0.224D-01-0.160D+00 0.114D+01
 Coeff:      0.404D-07-0.699D-07-0.105D-06-0.157D-04 0.194D-03-0.132D-02
 Coeff:      0.224D-01-0.160D+00 0.114D+01
 Gap=     0.513 Goal=   None    Shift=    0.000
 RMSDP=7.17D-10 MaxDP=1.18D-08 DE=-4.97D-13 OVMax= 5.07D-09

 SCF Done:  E(RwB97XD) =  -40.5192467001     A.U. after    9 cycles
            NFock=  9  Conv=0.72D-09     -V/T= 2.0050
 KE= 4.031847203110D+01 PE=-1.206551813201D+02 EE= 2.613130308522D+01
 Leave Link  502 at Fri Sep  6 16:36:12 2024, MaxMem=   536870912 cpu:               6.6 elap:               1.7
 (Enter /Users/asuyarger/Applications/G16/g16/l601.exe)
 Copying SCF densities to generalized density rwf, IOpCl= 0 IROHF=0.

 **********************************************************************

            Population analysis using the SCF density.

 **********************************************************************

 Orbital symmetries:
       Occupied  (A1) (A1) (T2) (T2) (T2)
       Virtual   (A1) (T2) (T2) (T2) (T2) (T2) (T2) (A1) (T2) (T2)
                 (T2) (E) (E) (T2) (T2) (T2) (A1) (T1) (T1) (T1)
                 (A1) (T2) (T2) (T2) (T2) (T2) (T2) (E) (E) (T2)
                 (T2) (T2) (A1) (T2) (T2) (T2) (T1) (T1) (T1) (E)
                 (E) (T2) (T2) (T2) (A1) (T2) (T2) (T2) (T1) (T1)
                 (T1) (E) (E) (T2) (T2) (T2) (E) (E) (A1) (T2)
                 (T2) (T2) (A1) (T1) (T1) (T1) (T2) (T2) (T2) (T2)
                 (T2) (T2) (T1) (T1) (T1) (T2) (T2) (T2) (E) (E)
                 (A1) (A1) (T2) (T2) (T2) (E) (E) (T2) (T2) (T2)
                 (T1) (T1) (T1) (T2) (T2) (T2) (T2) (T2) (T2) (T1)
                 (T1) (T1) (E) (E) (A1) (T2) (T2) (T2) (E) (E)
                 (T2) (T2) (T2) (T1) (T1) (T1) (T2) (T2) (T2) (A1)
                 (T1) (T1) (T1) (A1) (E) (E) (T2) (T2) (T2) (T2)
                 (T2) (T2) (A1)
 The electronic state is 1-A1.
 Alpha  occ. eigenvalues --  -10.25544  -0.79739  -0.47976  -0.47976  -0.47976
 Alpha virt. eigenvalues --    0.03316   0.05342   0.05342   0.05342   0.12653
 Alpha virt. eigenvalues --    0.12653   0.12653   0.13364   0.20816   0.20816
 Alpha virt. eigenvalues --    0.20816   0.21809   0.21809   0.31614   0.31614
 Alpha virt. eigenvalues --    0.31614   0.32393   0.35421   0.35421   0.35421
 Alpha virt. eigenvalues --    0.38329   0.38574   0.38574   0.38574   0.42819
 Alpha virt. eigenvalues --    0.42819   0.42819   0.47068   0.47068   0.63341
 Alpha virt. eigenvalues --    0.63341   0.63341   0.71052   0.76163   0.76163
 Alpha virt. eigenvalues --    0.76163   0.84354   0.84354   0.84354   0.90870
 Alpha virt. eigenvalues --    0.90870   0.91163   0.91163   0.91163   0.91364
 Alpha virt. eigenvalues --    1.02534   1.02534   1.02534   1.04696   1.04696
 Alpha virt. eigenvalues --    1.04696   1.06260   1.06260   1.18518   1.18518
 Alpha virt. eigenvalues --    1.18518   1.22110   1.22110   1.24069   1.48693
 Alpha virt. eigenvalues --    1.48693   1.48693   1.51023   1.54074   1.54074
 Alpha virt. eigenvalues --    1.54074   1.63422   1.63422   1.63422   1.73038
 Alpha virt. eigenvalues --    1.73038   1.73038   1.82650   1.82650   1.82650
 Alpha virt. eigenvalues --    1.99873   1.99873   1.99873   2.11104   2.11104
 Alpha virt. eigenvalues --    2.43327   2.69607   3.02444   3.02444   3.02444
 Alpha virt. eigenvalues --    3.24382   3.24382   3.33250   3.33250   3.33250
 Alpha virt. eigenvalues --    3.36503   3.36503   3.36503   3.68476   3.68476
 Alpha virt. eigenvalues --    3.68476   3.83451   3.83451   3.83451   3.87324
 Alpha virt. eigenvalues --    3.87324   3.87324   3.91489   3.91489   4.08177
 Alpha virt. eigenvalues --    4.38154   4.38154   4.38154   4.52995   4.52995
 Alpha virt. eigenvalues --    4.57648   4.57648   4.57648   4.67276   4.67276
 Alpha virt. eigenvalues --    4.67276   5.01895   5.01895   5.01895   5.07892
 Alpha virt. eigenvalues --    5.41204   5.41204   5.41204   5.58533   5.66159
 Alpha virt. eigenvalues --    5.66159   6.03091   6.03091   6.03091   6.32653
 Alpha virt. eigenvalues --    6.32653   6.32653  17.30263
     Molecular Orbital Coefficients:
                           1         2         3         4         5
                        (A1)--O   (A1)--O   (T2)--O   (T2)--O   (T2)--O
     Eigenvalues --   -10.25544  -0.79739  -0.47976  -0.47976  -0.47976
   1 1   C  1S          0.97821  -0.18655   0.00000   0.00000   0.00000
   2        2S          0.01752   0.42085   0.00000   0.00000   0.00000
   3        3S          0.05196   0.10379   0.00000   0.00000   0.00000
   4        4S          0.01626   0.27250   0.00000   0.00000   0.00000
   5        5S          0.00202   0.01803   0.00000   0.00000   0.00000
   6        6PX         0.00000   0.00000   0.00000   0.00000   0.25197
   7        6PY         0.00000   0.00000   0.00000   0.25197   0.00000
   8        6PZ         0.00000   0.00000   0.25197   0.00000   0.00000
   9        7PX         0.00000   0.00000   0.00000   0.00000   0.28872
  10        7PY         0.00000   0.00000   0.00000   0.28872   0.00000
  11        7PZ         0.00000   0.00000   0.28872   0.00000   0.00000
  12        8PX         0.00000   0.00000   0.00000   0.00000   0.21485
  13        8PY         0.00000   0.00000   0.00000   0.21485   0.00000
  14        8PZ         0.00000   0.00000   0.21485   0.00000   0.00000
  15        9PX         0.00000   0.00000   0.00000   0.00000   0.01785
  16        9PY         0.00000   0.00000   0.00000   0.01785   0.00000
  17        9PZ         0.00000   0.00000   0.01785   0.00000   0.00000
  18       10D 0        0.00000   0.00000   0.00000   0.00000   0.00000
  19       10D+1        0.00000   0.00000   0.00000   0.01357   0.00000
  20       10D-1        0.00000   0.00000   0.00000   0.00000   0.01357
  21       10D+2        0.00000  -0.00000   0.00000   0.00000   0.00000
  22       10D-2        0.00000   0.00000   0.01357   0.00000   0.00000
  23       11D 0       -0.00000   0.00000   0.00000   0.00000   0.00000
  24       11D+1        0.00000   0.00000   0.00000   0.01801   0.00000
  25       11D-1        0.00000   0.00000   0.00000   0.00000   0.01801
  26       11D+2       -0.00000   0.00000   0.00000   0.00000   0.00000
  27       11D-2        0.00000   0.00000   0.01801   0.00000   0.00000
  28       12D 0        0.00000   0.00000   0.00000   0.00000   0.00000
  29       12D+1        0.00000   0.00000   0.00000   0.01917   0.00000
  30       12D-1        0.00000   0.00000   0.00000   0.00000   0.01917
  31       12D+2       -0.00000   0.00000   0.00000   0.00000   0.00000
  32       12D-2        0.00000   0.00000   0.01917   0.00000   0.00000
  33       13F 0        0.00000   0.00000   0.00075   0.00000   0.00000
  34       13F+1        0.00000   0.00000   0.00000   0.00000  -0.00046
  35       13F-1        0.00000   0.00000   0.00000  -0.00046   0.00000
  36       13F+2        0.00000   0.00000  -0.00000   0.00000   0.00000
  37       13F-2        0.00281   0.00239   0.00000   0.00000   0.00000
  38       13F+3        0.00000   0.00000   0.00000   0.00000   0.00059
  39       13F-3        0.00000   0.00000   0.00000  -0.00059   0.00000
  40       14F 0        0.00000   0.00000  -0.00189   0.00000   0.00000
  41       14F+1        0.00000   0.00000   0.00000   0.00000   0.00116
  42       14F-1        0.00000   0.00000   0.00000   0.00116   0.00000
  43       14F+2        0.00000   0.00000   0.00000   0.00000   0.00000
  44       14F-2       -0.00369   0.00443   0.00000   0.00000   0.00000
  45       14F+3        0.00000   0.00000   0.00000   0.00000  -0.00150
  46       14F-3        0.00000   0.00000   0.00000   0.00150   0.00000
  47 2   H  1S         -0.00005   0.08602   0.10589   0.10589   0.10589
  48        2S         -0.00313   0.08521   0.14353   0.14353   0.14353
  49        3S         -0.00482  -0.00647  -0.02044  -0.02044  -0.02044
  50        4S         -0.00030  -0.00130  -0.00755  -0.00755  -0.00755
  51        5PX         0.00059  -0.00544  -0.00680  -0.00680  -0.00139
  52        5PY         0.00059  -0.00544  -0.00680  -0.00139  -0.00680
  53        5PZ         0.00059  -0.00544  -0.00139  -0.00680  -0.00680
  54        6PX         0.00318  -0.00074  -0.00463  -0.00463   0.00889
  55        6PY         0.00318  -0.00074  -0.00463   0.00889  -0.00463
  56        6PZ         0.00318  -0.00074   0.00889  -0.00463  -0.00463
  57        7PX         0.00192   0.00542   0.01151   0.01151   0.01394
  58        7PY         0.00192   0.00542   0.01151   0.01394   0.01151
  59        7PZ         0.00192   0.00542   0.01394   0.01151   0.01151
  60        8D 0       -0.00000   0.00000  -0.00158   0.00079   0.00079
  61        8D+1       -0.00085   0.00135   0.00076   0.00205   0.00076
  62        8D-1       -0.00085   0.00135   0.00076   0.00076   0.00205
  63        8D+2       -0.00000   0.00000  -0.00000   0.00137  -0.00137
  64        8D-2       -0.00085   0.00135   0.00205   0.00076   0.00076
  65        9D 0       -0.00000  -0.00000  -0.00023   0.00011   0.00011
  66        9D+1       -0.00121  -0.00239  -0.00175  -0.00054  -0.00175
  67        9D-1       -0.00121  -0.00239  -0.00175  -0.00175  -0.00054
  68        9D+2       -0.00000   0.00000   0.00000   0.00020  -0.00020
  69        9D-2       -0.00121  -0.00239  -0.00054  -0.00175  -0.00175
  70 3   H  1S         -0.00005   0.08602   0.10589  -0.10589  -0.10589
  71        2S         -0.00313   0.08521   0.14353  -0.14353  -0.14353
  72        3S         -0.00482  -0.00647  -0.02044   0.02044   0.02044
  73        4S         -0.00030  -0.00130  -0.00755   0.00755   0.00755
  74        5PX        -0.00059   0.00544   0.00680  -0.00680  -0.00139
  75        5PY        -0.00059   0.00544   0.00680  -0.00139  -0.00680
  76        5PZ         0.00059  -0.00544  -0.00139   0.00680   0.00680
  77        6PX        -0.00318   0.00074   0.00463  -0.00463   0.00889
  78        6PY        -0.00318   0.00074   0.00463   0.00889  -0.00463
  79        6PZ         0.00318  -0.00074   0.00889   0.00463   0.00463
  80        7PX        -0.00192  -0.00542  -0.01151   0.01151   0.01394
  81        7PY        -0.00192  -0.00542  -0.01151   0.01394   0.01151
  82        7PZ         0.00192   0.00542   0.01394  -0.01151  -0.01151
  83        8D 0       -0.00000   0.00000  -0.00158  -0.00079  -0.00079
  84        8D+1        0.00085  -0.00135  -0.00076   0.00205   0.00076
  85        8D-1        0.00085  -0.00135  -0.00076   0.00076   0.00205
  86        8D+2       -0.00000   0.00000  -0.00000  -0.00137   0.00137
  87        8D-2       -0.00085   0.00135   0.00205  -0.00076  -0.00076
  88        9D 0       -0.00000  -0.00000  -0.00023  -0.00011  -0.00011
  89        9D+1        0.00121   0.00239   0.00175  -0.00054  -0.00175
  90        9D-1        0.00121   0.00239   0.00175  -0.00175  -0.00054
  91        9D+2       -0.00000   0.00000   0.00000  -0.00020   0.00020
  92        9D-2       -0.00121  -0.00239  -0.00054   0.00175   0.00175
  93 4   H  1S         -0.00005   0.08602  -0.10589   0.10589  -0.10589
  94        2S         -0.00313   0.08521  -0.14353   0.14353  -0.14353
  95        3S         -0.00482  -0.00647   0.02044  -0.02044   0.02044
  96        4S         -0.00030  -0.00130   0.00755  -0.00755   0.00755
  97        5PX        -0.00059   0.00544  -0.00680   0.00680  -0.00139
  98        5PY         0.00059  -0.00544   0.00680  -0.00139   0.00680
  99        5PZ        -0.00059   0.00544  -0.00139   0.00680  -0.00680
 100        6PX        -0.00318   0.00074  -0.00463   0.00463   0.00889
 101        6PY         0.00318  -0.00074   0.00463   0.00889   0.00463
 102        6PZ        -0.00318   0.00074   0.00889   0.00463  -0.00463
 103        7PX        -0.00192  -0.00542   0.01151  -0.01151   0.01394
 104        7PY         0.00192   0.00542  -0.01151   0.01394  -0.01151
 105        7PZ        -0.00192  -0.00542   0.01394  -0.01151   0.01151
 106        8D 0       -0.00000   0.00000   0.00158   0.00079  -0.00079
 107        8D+1       -0.00085   0.00135  -0.00076   0.00205  -0.00076
 108        8D-1        0.00085  -0.00135   0.00076  -0.00076   0.00205
 109        8D+2       -0.00000   0.00000   0.00000   0.00137   0.00137
 110        8D-2        0.00085  -0.00135   0.00205  -0.00076   0.00076
 111        9D 0       -0.00000  -0.00000   0.00023   0.00011  -0.00011
 112        9D+1       -0.00121  -0.00239   0.00175  -0.00054   0.00175
 113        9D-1        0.00121   0.00239  -0.00175   0.00175  -0.00054
 114        9D+2       -0.00000   0.00000  -0.00000   0.00020   0.00020
 115        9D-2        0.00121   0.00239  -0.00054   0.00175  -0.00175
 116 5   H  1S         -0.00005   0.08602  -0.10589  -0.10589   0.10589
 117        2S         -0.00313   0.08521  -0.14353  -0.14353   0.14353
 118        3S         -0.00482  -0.00647   0.02044   0.02044  -0.02044
 119        4S         -0.00030  -0.00130   0.00755   0.00755  -0.00755
 120        5PX         0.00059  -0.00544   0.00680   0.00680  -0.00139
 121        5PY        -0.00059   0.00544  -0.00680  -0.00139   0.00680
 122        5PZ        -0.00059   0.00544  -0.00139  -0.00680   0.00680
 123        6PX         0.00318  -0.00074   0.00463   0.00463   0.00889
 124        6PY        -0.00318   0.00074  -0.00463   0.00889   0.00463
 125        6PZ        -0.00318   0.00074   0.00889  -0.00463   0.00463
 126        7PX         0.00192   0.00542  -0.01151  -0.01151   0.01394
 127        7PY        -0.00192  -0.00542   0.01151   0.01394  -0.01151
 128        7PZ        -0.00192  -0.00542   0.01394   0.01151  -0.01151
 129        8D 0       -0.00000   0.00000   0.00158  -0.00079   0.00079
 130        8D+1        0.00085  -0.00135   0.00076   0.00205  -0.00076
 131        8D-1       -0.00085   0.00135  -0.00076  -0.00076   0.00205
 132        8D+2       -0.00000   0.00000   0.00000  -0.00137  -0.00137
 133        8D-2        0.00085  -0.00135   0.00205   0.00076  -0.00076
 134        9D 0       -0.00000  -0.00000   0.00023  -0.00011   0.00011
 135        9D+1        0.00121   0.00239  -0.00175  -0.00054   0.00175
 136        9D-1       -0.00121  -0.00239   0.00175   0.00175  -0.00054
 137        9D+2       -0.00000   0.00000  -0.00000  -0.00020  -0.00020
 138        9D-2        0.00121   0.00239  -0.00054  -0.00175   0.00175
                           6         7         8         9        10
                        (A1)--V   (T2)--V   (T2)--V   (T2)--V   (T2)--V
     Eigenvalues --     0.03316   0.05342   0.05342   0.05342   0.12653
   1 1   C  1S         -0.03388   0.00000   0.00000   0.00000   0.00000
   2        2S          0.08752   0.00000   0.00000   0.00000   0.00000
   3        3S         -0.00770   0.00000   0.00000   0.00000   0.00000
   4        4S          3.71434   0.00000   0.00000   0.00000   0.00000
   5        5S          3.98690   0.00000   0.00000   0.00000   0.00000
   6        6PX         0.00000   0.00000   0.00000  -0.03139   0.00000
   7        6PY         0.00000   0.00000  -0.03139   0.00000  -0.03994
   8        6PZ         0.00000  -0.03139   0.00000   0.00000   0.00000
   9        7PX         0.00000   0.00000   0.00000  -0.21531   0.00000
  10        7PY         0.00000   0.00000  -0.21531   0.00000  -0.07432
  11        7PZ         0.00000  -0.21531   0.00000   0.00000   0.00000
  12        8PX         0.00000   0.00000   0.00000  -1.75853   0.00000
  13        8PY         0.00000   0.00000  -1.75853   0.00000   2.65506
  14        8PZ         0.00000  -1.75853   0.00000   0.00000   0.00000
  15        9PX         0.00000   0.00000   0.00000  -2.08155   0.00000
  16        9PY         0.00000   0.00000  -2.08155   0.00000   4.86498
  17        9PZ         0.00000  -2.08155   0.00000   0.00000   0.00000
  18       10D 0       -0.00000   0.00000   0.00000   0.00000   0.00000
  19       10D+1        0.00000   0.00000  -0.00435   0.00000  -0.00672
  20       10D-1        0.00000   0.00000   0.00000  -0.00435   0.00000
  21       10D+2        0.00000   0.00000   0.00000   0.00000   0.00000
  22       10D-2        0.00000  -0.00435   0.00000   0.00000   0.00000
  23       11D 0        0.00000   0.00000   0.00000   0.00000   0.00000
  24       11D+1        0.00000   0.00000  -0.14912   0.00000  -0.06058
  25       11D-1        0.00000   0.00000   0.00000  -0.14912   0.00000
  26       11D+2       -0.00000   0.00000   0.00000   0.00000   0.00000
  27       11D-2        0.00000  -0.14912   0.00000   0.00000   0.00000
  28       12D 0        0.00000   0.00000   0.00000   0.00000   0.00000
  29       12D+1        0.00000   0.00000  -0.34898   0.00000   0.47657
  30       12D-1        0.00000   0.00000   0.00000  -0.34898   0.00000
  31       12D+2       -0.00000   0.00000   0.00000   0.00000   0.00000
  32       12D-2        0.00000  -0.34898   0.00000   0.00000   0.00000
  33       13F 0        0.00000   0.00546   0.00000   0.00000   0.00000
  34       13F+1        0.00000   0.00000   0.00000  -0.00334   0.00000
  35       13F-1        0.00000   0.00000  -0.00334   0.00000   0.00069
  36       13F+2        0.00000   0.00000   0.00000   0.00000   0.00000
  37       13F-2        0.01052   0.00000   0.00000   0.00000   0.00000
  38       13F+3        0.00000   0.00000   0.00000   0.00432   0.00000
  39       13F-3        0.00000   0.00000  -0.00432   0.00000   0.00089
  40       14F 0        0.00000   0.04067   0.00000   0.00000   0.00000
  41       14F+1        0.00000   0.00000   0.00000  -0.02491   0.00000
  42       14F-1        0.00000   0.00000  -0.02491   0.00000  -0.03777
  43       14F+2        0.00000   0.00000   0.00000   0.00000   0.00000
  44       14F-2        0.10074   0.00000   0.00000   0.00000   0.00000
  45       14F+3        0.00000   0.00000   0.00000   0.03215   0.00000
  46       14F-3        0.00000   0.00000  -0.03215   0.00000  -0.04876
  47 2   H  1S          0.00684  -0.00957  -0.00957  -0.00957  -0.01837
  48        2S         -0.30074   0.21149   0.21149   0.21149  -0.08512
  49        3S         -1.21300   1.91183   1.91183   1.91183  -1.96056
  50        4S         -0.83410   3.64990   3.64990   3.64990  -4.14145
  51        5PX        -0.00132   0.00082   0.00082  -0.00109  -0.00126
  52        5PY        -0.00132   0.00082  -0.00109   0.00082   0.00706
  53        5PZ        -0.00132  -0.00109   0.00082   0.00082  -0.00126
  54        6PX         0.04790  -0.04262  -0.04262  -0.04596   0.01876
  55        6PY         0.04790  -0.04262  -0.04596  -0.04262  -0.06175
  56        6PZ         0.04790  -0.04596  -0.04262  -0.04262   0.01876
  57        7PX         0.14469  -0.32771  -0.32771  -0.25824   0.16301
  58        7PY         0.14469  -0.32771  -0.25824  -0.32771  -0.44444
  59        7PZ         0.14469  -0.25824  -0.32771  -0.32771   0.16301
  60        8D 0        0.00000   0.00123  -0.00061  -0.00061   0.00004
  61        8D+1       -0.00245   0.00240   0.00177   0.00240  -0.00125
  62        8D-1       -0.00245   0.00240   0.00240   0.00177  -0.00121
  63        8D+2       -0.00000   0.00000  -0.00106   0.00106   0.00007
  64        8D-2       -0.00245   0.00177   0.00240   0.00240  -0.00121
  65        9D 0        0.00000  -0.00741   0.00371   0.00371  -0.02221
  66        9D+1        0.00417   0.01111   0.01508   0.01111  -0.01907
  67        9D-1        0.00417   0.01111   0.01111   0.01508   0.06939
  68        9D+2       -0.00000   0.00000   0.00642  -0.00642  -0.03846
  69        9D-2        0.00417   0.01508   0.01111   0.01111   0.06939
  70 3   H  1S          0.00684  -0.00957   0.00957   0.00957   0.01837
  71        2S         -0.30074   0.21149  -0.21149  -0.21149   0.08512
  72        3S         -1.21300   1.91183  -1.91183  -1.91183   1.96056
  73        4S         -0.83410   3.64990  -3.64990  -3.64990   4.14145
  74        5PX         0.00132  -0.00082   0.00082  -0.00109  -0.00126
  75        5PY         0.00132  -0.00082  -0.00109   0.00082   0.00706
  76        5PZ        -0.00132  -0.00109  -0.00082  -0.00082   0.00126
  77        6PX        -0.04790   0.04262  -0.04262  -0.04596   0.01876
  78        6PY        -0.04790   0.04262  -0.04596  -0.04262  -0.06175
  79        6PZ         0.04790  -0.04596   0.04262   0.04262  -0.01876
  80        7PX        -0.14469   0.32771  -0.32771  -0.25824   0.16301
  81        7PY        -0.14469   0.32771  -0.25824  -0.32771  -0.44444
  82        7PZ         0.14469  -0.25824   0.32771   0.32771  -0.16301
  83        8D 0        0.00000   0.00123   0.00061   0.00061  -0.00004
  84        8D+1        0.00245  -0.00240   0.00177   0.00240  -0.00125
  85        8D-1        0.00245  -0.00240   0.00240   0.00177  -0.00121
  86        8D+2       -0.00000   0.00000   0.00106  -0.00106  -0.00007
  87        8D-2       -0.00245   0.00177  -0.00240  -0.00240   0.00121
  88        9D 0        0.00000  -0.00741  -0.00371  -0.00371   0.02221
  89        9D+1       -0.00417  -0.01111   0.01508   0.01111  -0.01907
  90        9D-1       -0.00417  -0.01111   0.01111   0.01508   0.06939
  91        9D+2       -0.00000   0.00000  -0.00642   0.00642   0.03846
  92        9D-2        0.00417   0.01508  -0.01111  -0.01111  -0.06939
  93 4   H  1S          0.00684   0.00957  -0.00957   0.00957  -0.01837
  94        2S         -0.30074  -0.21149   0.21149  -0.21149  -0.08512
  95        3S         -1.21300  -1.91183   1.91183  -1.91183  -1.96056
  96        4S         -0.83410  -3.64990   3.64990  -3.64990  -4.14145
  97        5PX         0.00132   0.00082  -0.00082  -0.00109   0.00126
  98        5PY        -0.00132  -0.00082  -0.00109  -0.00082   0.00706
  99        5PZ         0.00132  -0.00109  -0.00082   0.00082   0.00126
 100        6PX        -0.04790  -0.04262   0.04262  -0.04596  -0.01876
 101        6PY         0.04790   0.04262  -0.04596   0.04262  -0.06175
 102        6PZ        -0.04790  -0.04596   0.04262  -0.04262  -0.01876
 103        7PX        -0.14469  -0.32771   0.32771  -0.25824  -0.16301
 104        7PY         0.14469   0.32771  -0.25824   0.32771  -0.44444
 105        7PZ        -0.14469  -0.25824   0.32771  -0.32771  -0.16301
 106        8D 0        0.00000  -0.00123  -0.00061   0.00061   0.00004
 107        8D+1       -0.00245  -0.00240   0.00177  -0.00240  -0.00125
 108        8D-1        0.00245   0.00240  -0.00240   0.00177   0.00121
 109        8D+2       -0.00000  -0.00000  -0.00106  -0.00106   0.00007
 110        8D-2        0.00245   0.00177  -0.00240   0.00240   0.00121
 111        9D 0        0.00000   0.00741   0.00371  -0.00371  -0.02221
 112        9D+1        0.00417  -0.01111   0.01508  -0.01111  -0.01907
 113        9D-1       -0.00417   0.01111  -0.01111   0.01508  -0.06939
 114        9D+2       -0.00000  -0.00000   0.00642   0.00642  -0.03846
 115        9D-2       -0.00417   0.01508  -0.01111   0.01111  -0.06939
 116 5   H  1S          0.00684   0.00957   0.00957  -0.00957   0.01837
 117        2S         -0.30074  -0.21149  -0.21149   0.21149   0.08512
 118        3S         -1.21300  -1.91183  -1.91183   1.91183   1.96056
 119        4S         -0.83410  -3.64990  -3.64990   3.64990   4.14145
 120        5PX        -0.00132  -0.00082  -0.00082  -0.00109   0.00126
 121        5PY         0.00132   0.00082  -0.00109  -0.00082   0.00706
 122        5PZ         0.00132  -0.00109   0.00082  -0.00082  -0.00126
 123        6PX         0.04790   0.04262   0.04262  -0.04596  -0.01876
 124        6PY        -0.04790  -0.04262  -0.04596   0.04262  -0.06175
 125        6PZ        -0.04790  -0.04596  -0.04262   0.04262   0.01876
 126        7PX         0.14469   0.32771   0.32771  -0.25824  -0.16301
 127        7PY        -0.14469  -0.32771  -0.25824   0.32771  -0.44444
 128        7PZ        -0.14469  -0.25824  -0.32771   0.32771   0.16301
 129        8D 0        0.00000  -0.00123   0.00061  -0.00061  -0.00004
 130        8D+1        0.00245   0.00240   0.00177  -0.00240  -0.00125
 131        8D-1       -0.00245  -0.00240  -0.00240   0.00177   0.00121
 132        8D+2       -0.00000  -0.00000   0.00106   0.00106  -0.00007
 133        8D-2        0.00245   0.00177   0.00240  -0.00240  -0.00121
 134        9D 0        0.00000   0.00741  -0.00371   0.00371   0.02221
 135        9D+1       -0.00417   0.01111   0.01508  -0.01111  -0.01907
 136        9D-1        0.00417  -0.01111  -0.01111   0.01508  -0.06939
 137        9D+2       -0.00000  -0.00000  -0.00642  -0.00642   0.03846
 138        9D-2       -0.00417   0.01508   0.01111  -0.01111   0.06939
                          11        12        13        14        15
                        (T2)--V   (T2)--V   (A1)--V   (T2)--V   (T2)--V
     Eigenvalues --     0.12653   0.12653   0.13364   0.20816   0.20816
   1 1   C  1S          0.00000   0.00000   0.07315   0.00000   0.00000
   2        2S          0.00000   0.00000  -0.18593   0.00000   0.00000
   3        3S          0.00000   0.00000  -0.13252   0.00000   0.00000
   4        4S          0.00000   0.00000   9.43693   0.00000   0.00000
   5        5S          0.00000   0.00000   9.04276   0.00000   0.00000
   6        6PX         0.00000  -0.03994   0.00000   0.00000   0.00000
   7        6PY         0.00000   0.00000   0.00000   0.15862   0.00000
   8        6PZ        -0.03994   0.00000   0.00000   0.00000   0.15862
   9        7PX         0.00000  -0.07432   0.00000   0.00000   0.00000
  10        7PY         0.00000   0.00000   0.00000  -0.39636   0.00000
  11        7PZ        -0.07432   0.00000   0.00000   0.00000  -0.39636
  12        8PX         0.00000   2.65506   0.00000   0.00000   0.00000
  13        8PY         0.00000   0.00000   0.00000  -3.99521   0.00000
  14        8PZ         2.65506   0.00000   0.00000   0.00000  -3.99521
  15        9PX         0.00000   4.86498   0.00000   0.00000   0.00000
  16        9PY         0.00000   0.00000   0.00000  -1.31210   0.00000
  17        9PZ         4.86498   0.00000   0.00000   0.00000  -1.31210
  18       10D 0        0.00000   0.00000  -0.00000   0.00000   0.00000
  19       10D+1        0.00000   0.00000   0.00000  -0.02627   0.00000
  20       10D-1        0.00000  -0.00672   0.00000   0.00000   0.00000
  21       10D+2        0.00000   0.00000   0.00000   0.00000   0.00000
  22       10D-2       -0.00672   0.00000   0.00000   0.00000  -0.02627
  23       11D 0        0.00000   0.00000   0.00000   0.00000   0.00000
  24       11D+1        0.00000   0.00000   0.00000  -0.56854   0.00000
  25       11D-1        0.00000  -0.06058   0.00000   0.00000   0.00000
  26       11D+2        0.00000   0.00000  -0.00000   0.00000   0.00000
  27       11D-2       -0.06058   0.00000   0.00000   0.00000  -0.56854
  28       12D 0        0.00000   0.00000   0.00000   0.00000   0.00000
  29       12D+1        0.00000   0.00000   0.00000  -0.93029   0.00000
  30       12D-1        0.00000   0.47657   0.00000   0.00000   0.00000
  31       12D+2        0.00000   0.00000  -0.00000   0.00000   0.00000
  32       12D-2        0.47657   0.00000   0.00000   0.00000  -0.93029
  33       13F 0       -0.00113   0.00000   0.00000   0.00000   0.01779
  34       13F+1        0.00000   0.00069   0.00000   0.00000   0.00000
  35       13F-1        0.00000   0.00000   0.00000  -0.01090   0.00000
  36       13F+2       -0.00000   0.00000   0.00000   0.00000   0.00000
  37       13F-2        0.00000   0.00000   0.02621   0.00000   0.00000
  38       13F+3        0.00000  -0.00089   0.00000   0.00000   0.00000
  39       13F-3        0.00000   0.00000   0.00000  -0.01407   0.00000
  40       14F 0        0.06168   0.00000   0.00000   0.00000   0.17995
  41       14F+1        0.00000  -0.03777   0.00000   0.00000   0.00000
  42       14F-1        0.00000   0.00000   0.00000  -0.11019   0.00000
  43       14F+2       -0.00000   0.00000   0.00000   0.00000   0.00000
  44       14F-2        0.00000   0.00000   0.25866   0.00000   0.00000
  45       14F+3        0.00000   0.04876   0.00000   0.00000   0.00000
  46       14F-3        0.00000   0.00000   0.00000  -0.14226   0.00000
  47 2   H  1S         -0.01837  -0.01837   0.01155  -0.03245  -0.03245
  48        2S         -0.08512  -0.08512  -0.76827   0.64167   0.64167
  49        3S         -1.96056  -1.96056  -3.15271   5.35759   5.35759
  50        4S         -4.14145  -4.14145  -1.11189   1.88221   1.88221
  51        5PX        -0.00126   0.00706   0.00343  -0.00770  -0.00770
  52        5PY        -0.00126  -0.00126   0.00343  -0.00018  -0.00770
  53        5PZ         0.00706  -0.00126   0.00343  -0.00770  -0.00018
  54        6PX         0.01876  -0.06175   0.15694  -0.16052  -0.16052
  55        6PY         0.01876   0.01876   0.15694  -0.20503  -0.16052
  56        6PZ        -0.06175   0.01876   0.15694  -0.16052  -0.20503
  57        7PX         0.16301  -0.44444   0.44358  -1.21462  -1.21462
  58        7PY         0.16301   0.16301   0.44358  -1.38425  -1.21462
  59        7PZ        -0.44444   0.16301   0.44358  -1.21462  -1.38425
  60        8D 0       -0.00008   0.00004   0.00000  -0.00052   0.00103
  61        8D+1       -0.00121  -0.00121  -0.00795   0.00649   0.00666
  62        8D-1       -0.00121  -0.00125  -0.00795   0.00666   0.00666
  63        8D+2       -0.00000  -0.00007  -0.00000  -0.00090   0.00000
  64        8D-2       -0.00125  -0.00121  -0.00795   0.00666   0.00649
  65        9D 0        0.04441  -0.02221   0.00000   0.00065  -0.00129
  66        9D+1        0.06939   0.06939   0.00498   0.03546   0.08825
  67        9D-1        0.06939  -0.01907   0.00498   0.08825   0.08825
  68        9D+2       -0.00000   0.03846  -0.00000   0.00112   0.00000
  69        9D-2       -0.01907   0.06939   0.00498   0.08825   0.03546
  70 3   H  1S         -0.01837   0.01837   0.01155   0.03245  -0.03245
  71        2S         -0.08512   0.08512  -0.76827  -0.64167   0.64167
  72        3S         -1.96056   1.96056  -3.15271  -5.35759   5.35759
  73        4S         -4.14145   4.14145  -1.11189  -1.88221   1.88221
  74        5PX         0.00126   0.00706  -0.00343  -0.00770   0.00770
  75        5PY         0.00126  -0.00126  -0.00343  -0.00018   0.00770
  76        5PZ         0.00706   0.00126   0.00343   0.00770  -0.00018
  77        6PX        -0.01876  -0.06175  -0.15694  -0.16052   0.16052
  78        6PY        -0.01876   0.01876  -0.15694  -0.20503   0.16052
  79        6PZ        -0.06175  -0.01876   0.15694   0.16052  -0.20503
  80        7PX        -0.16301  -0.44444  -0.44358  -1.21462   1.21462
  81        7PY        -0.16301   0.16301  -0.44358  -1.38425   1.21462
  82        7PZ        -0.44444  -0.16301   0.44358   1.21462  -1.38425
  83        8D 0       -0.00008  -0.00004   0.00000   0.00052   0.00103
  84        8D+1        0.00121  -0.00121   0.00795   0.00649  -0.00666
  85        8D-1        0.00121  -0.00125   0.00795   0.00666  -0.00666
  86        8D+2       -0.00000   0.00007  -0.00000   0.00090   0.00000
  87        8D-2       -0.00125   0.00121  -0.00795  -0.00666   0.00649
  88        9D 0        0.04441   0.02221   0.00000  -0.00065  -0.00129
  89        9D+1       -0.06939   0.06939  -0.00498   0.03546  -0.08825
  90        9D-1       -0.06939  -0.01907  -0.00498   0.08825  -0.08825
  91        9D+2       -0.00000  -0.03846  -0.00000  -0.00112   0.00000
  92        9D-2       -0.01907  -0.06939   0.00498  -0.08825   0.03546
  93 4   H  1S          0.01837   0.01837   0.01155  -0.03245   0.03245
  94        2S          0.08512   0.08512  -0.76827   0.64167  -0.64167
  95        3S          1.96056   1.96056  -3.15271   5.35759  -5.35759
  96        4S          4.14145   4.14145  -1.11189   1.88221  -1.88221
  97        5PX        -0.00126   0.00706  -0.00343   0.00770  -0.00770
  98        5PY         0.00126   0.00126   0.00343  -0.00018   0.00770
  99        5PZ         0.00706  -0.00126  -0.00343   0.00770  -0.00018
 100        6PX         0.01876  -0.06175  -0.15694   0.16052  -0.16052
 101        6PY        -0.01876  -0.01876   0.15694  -0.20503   0.16052
 102        6PZ        -0.06175   0.01876  -0.15694   0.16052  -0.20503
 103        7PX         0.16301  -0.44444  -0.44358   1.21462  -1.21462
 104        7PY        -0.16301  -0.16301   0.44358  -1.38425   1.21462
 105        7PZ        -0.44444   0.16301  -0.44358   1.21462  -1.38425
 106        8D 0        0.00008  -0.00004   0.00000  -0.00052  -0.00103
 107        8D+1        0.00121   0.00121  -0.00795   0.00649  -0.00666
 108        8D-1       -0.00121  -0.00125   0.00795  -0.00666   0.00666
 109        8D+2        0.00000   0.00007  -0.00000  -0.00090  -0.00000
 110        8D-2       -0.00125  -0.00121   0.00795  -0.00666   0.00649
 111        9D 0       -0.04441   0.02221   0.00000   0.00065   0.00129
 112        9D+1       -0.06939  -0.06939   0.00498   0.03546  -0.08825
 113        9D-1        0.06939  -0.01907  -0.00498  -0.08825   0.08825
 114        9D+2        0.00000  -0.03846  -0.00000   0.00112  -0.00000
 115        9D-2       -0.01907   0.06939  -0.00498  -0.08825   0.03546
 116 5   H  1S          0.01837  -0.01837   0.01155   0.03245   0.03245
 117        2S          0.08512  -0.08512  -0.76827  -0.64167  -0.64167
 118        3S          1.96056  -1.96056  -3.15271  -5.35759  -5.35759
 119        4S          4.14145  -4.14145  -1.11189  -1.88221  -1.88221
 120        5PX         0.00126   0.00706   0.00343   0.00770   0.00770
 121        5PY        -0.00126   0.00126  -0.00343  -0.00018  -0.00770
 122        5PZ         0.00706   0.00126  -0.00343  -0.00770  -0.00018
 123        6PX        -0.01876  -0.06175   0.15694   0.16052   0.16052
 124        6PY         0.01876  -0.01876  -0.15694  -0.20503  -0.16052
 125        6PZ        -0.06175  -0.01876  -0.15694  -0.16052  -0.20503
 126        7PX        -0.16301  -0.44444   0.44358   1.21462   1.21462
 127        7PY         0.16301  -0.16301  -0.44358  -1.38425  -1.21462
 128        7PZ        -0.44444  -0.16301  -0.44358  -1.21462  -1.38425
 129        8D 0        0.00008   0.00004   0.00000   0.00052  -0.00103
 130        8D+1       -0.00121   0.00121   0.00795   0.00649   0.00666
 131        8D-1        0.00121  -0.00125  -0.00795  -0.00666  -0.00666
 132        8D+2        0.00000  -0.00007  -0.00000   0.00090  -0.00000
 133        8D-2       -0.00125   0.00121   0.00795   0.00666   0.00649
 134        9D 0       -0.04441  -0.02221   0.00000  -0.00065   0.00129
 135        9D+1        0.06939  -0.06939  -0.00498   0.03546   0.08825
 136        9D-1       -0.06939  -0.01907   0.00498  -0.08825  -0.08825
 137        9D+2        0.00000   0.03846  -0.00000  -0.00112  -0.00000
 138        9D-2       -0.01907  -0.06939  -0.00498   0.08825   0.03546
                          16        17        18        19        20
                        (T2)--V   (E)--V    (E)--V    (T2)--V   (T2)--V
     Eigenvalues --     0.20816   0.21809   0.21809   0.31614   0.31614
   1 1   C  1S          0.00000  -0.00000   0.00000   0.00000   0.00000
   2        2S          0.00000   0.00000  -0.00000   0.00000   0.00000
   3        3S          0.00000  -0.00000   0.00000   0.00000   0.00000
   4        4S          0.00000   0.00000  -0.00000   0.00000   0.00000
   5        5S          0.00000   0.00000  -0.00000   0.00000   0.00000
   6        6PX         0.15862   0.00000   0.00000   0.00000   0.00000
   7        6PY         0.00000   0.00000   0.00000   0.07522   0.00000
   8        6PZ         0.00000   0.00000   0.00000   0.00000   0.07522
   9        7PX        -0.39636   0.00000   0.00000   0.00000   0.00000
  10        7PY         0.00000   0.00000   0.00000  -0.05894   0.00000
  11        7PZ         0.00000   0.00000   0.00000   0.00000  -0.05894
  12        8PX        -3.99521   0.00000   0.00000   0.00000   0.00000
  13        8PY         0.00000   0.00000   0.00000   4.34507   0.00000
  14        8PZ         0.00000   0.00000   0.00000   0.00000   4.34507
  15        9PX        -1.31210   0.00000   0.00000   0.00000   0.00000
  16        9PY         0.00000   0.00000   0.00000   4.26413   0.00000
  17        9PZ         0.00000   0.00000   0.00000   0.00000   4.26413
  18       10D 0        0.00000  -0.02703  -0.00277   0.00000   0.00000
  19       10D+1        0.00000   0.00000   0.00000   0.01347   0.00000
  20       10D-1       -0.02627   0.00000   0.00000   0.00000   0.00000
  21       10D+2        0.00000   0.00277  -0.02703   0.00000   0.00000
  22       10D-2        0.00000   0.00000   0.00000   0.00000   0.01347
  23       11D 0        0.00000   0.42497   0.04353   0.00000   0.00000
  24       11D+1        0.00000   0.00000   0.00000  -0.06948   0.00000
  25       11D-1       -0.56854   0.00000   0.00000   0.00000   0.00000
  26       11D+2        0.00000  -0.04353   0.42497   0.00000   0.00000
  27       11D-2        0.00000   0.00000   0.00000   0.00000  -0.06948
  28       12D 0        0.00000   3.89019   0.39852   0.00000   0.00000
  29       12D+1        0.00000   0.00000   0.00000   0.95442   0.00000
  30       12D-1       -0.93029   0.00000   0.00000   0.00000   0.00000
  31       12D+2        0.00000  -0.39852   3.89019   0.00000   0.00000
  32       12D-2        0.00000   0.00000   0.00000   0.00000   0.95442
  33       13F 0        0.00000   0.00000   0.00000   0.00000  -0.00397
  34       13F+1       -0.01090   0.00000   0.00000   0.00000   0.00000
  35       13F-1        0.00000   0.00000   0.00000   0.00243   0.00000
  36       13F+2        0.00000   0.00000   0.00000   0.00000  -0.00000
  37       13F-2        0.00000   0.00000  -0.00000   0.00000   0.00000
  38       13F+3        0.01407   0.00000   0.00000   0.00000   0.00000
  39       13F-3        0.00000   0.00000   0.00000   0.00314   0.00000
  40       14F 0        0.00000   0.00000   0.00000   0.00000   0.10400
  41       14F+1       -0.11019   0.00000   0.00000   0.00000   0.00000
  42       14F-1        0.00000   0.00000   0.00000  -0.06369   0.00000
  43       14F+2        0.00000   0.00000   0.00000   0.00000  -0.00000
  44       14F-2        0.00000   0.00000  -0.00000   0.00000   0.00000
  45       14F+3        0.14226   0.00000   0.00000   0.00000   0.00000
  46       14F-3        0.00000   0.00000   0.00000  -0.08222   0.00000
  47 2   H  1S         -0.03245   0.00000  -0.00000   0.04942   0.04942
  48        2S          0.64167  -0.00000   0.00000  -0.02050  -0.02050
  49        3S          5.35759  -0.00000   0.00000  -0.92631  -0.92631
  50        4S          1.88221  -0.00000   0.00000  -2.48908  -2.48908
  51        5PX        -0.00018  -0.00164   0.00227  -0.00109  -0.00109
  52        5PY        -0.00770  -0.00115  -0.00256   0.00839  -0.00109
  53        5PZ        -0.00770   0.00279   0.00029  -0.00109   0.00839
  54        6PX        -0.20503   0.09298  -0.12868  -0.00298  -0.00298
  55        6PY        -0.16052   0.06495   0.14486  -0.19080  -0.00298
  56        6PZ        -0.16052  -0.15793  -0.01618  -0.00298  -0.19080
  57        7PX        -1.38425   1.35420  -1.87427  -0.14787  -0.14787
  58        7PY        -1.21462   0.94606   2.10991  -1.89295  -0.14787
  59        7PZ        -1.21462  -2.30026  -0.23564  -0.14787  -1.89295
  60        8D 0       -0.00052   0.00365   0.00037   0.00100  -0.00201
  61        8D+1        0.00666   0.00151   0.00336   0.00336  -0.00185
  62        8D-1        0.00649   0.00216  -0.00299  -0.00185  -0.00185
  63        8D+2        0.00090  -0.00037   0.00365   0.00174  -0.00000
  64        8D-2        0.00666  -0.00367  -0.00038  -0.00185   0.00336
  65        9D 0        0.00065   0.13267   0.01359  -0.04784   0.09568
  66        9D+1        0.08825   0.05451   0.12157  -0.00950   0.17697
  67        9D-1        0.03546   0.07803  -0.10800   0.17697   0.17697
  68        9D+2       -0.00112  -0.01359   0.13267  -0.08286  -0.00000
  69        9D-2        0.08825  -0.13254  -0.01358   0.17697  -0.00950
  70 3   H  1S          0.03245   0.00000  -0.00000  -0.04942   0.04942
  71        2S         -0.64167  -0.00000   0.00000   0.02050  -0.02050
  72        3S         -5.35759  -0.00000   0.00000   0.92631  -0.92631
  73        4S         -1.88221  -0.00000   0.00000   2.48908  -2.48908
  74        5PX        -0.00018   0.00164  -0.00227  -0.00109   0.00109
  75        5PY        -0.00770   0.00115   0.00256   0.00839   0.00109
  76        5PZ         0.00770   0.00279   0.00029   0.00109   0.00839
  77        6PX        -0.20503  -0.09298   0.12868  -0.00298   0.00298
  78        6PY        -0.16052  -0.06495  -0.14486  -0.19080   0.00298
  79        6PZ         0.16052  -0.15793  -0.01618   0.00298  -0.19080
  80        7PX        -1.38425  -1.35420   1.87427  -0.14787   0.14787
  81        7PY        -1.21462  -0.94606  -2.10991  -1.89295   0.14787
  82        7PZ         1.21462  -2.30026  -0.23564   0.14787  -1.89295
  83        8D 0        0.00052   0.00365   0.00037  -0.00100  -0.00201
  84        8D+1        0.00666  -0.00151  -0.00336   0.00336   0.00185
  85        8D-1        0.00649  -0.00216   0.00299  -0.00185   0.00185
  86        8D+2       -0.00090  -0.00037   0.00365  -0.00174  -0.00000
  87        8D-2       -0.00666  -0.00367  -0.00038   0.00185   0.00336
  88        9D 0       -0.00065   0.13267   0.01359   0.04784   0.09568
  89        9D+1        0.08825  -0.05451  -0.12157  -0.00950  -0.17697
  90        9D-1        0.03546  -0.07803   0.10800   0.17697  -0.17697
  91        9D+2        0.00112  -0.01359   0.13267   0.08286  -0.00000
  92        9D-2       -0.08825  -0.13254  -0.01358  -0.17697  -0.00950
  93 4   H  1S          0.03245   0.00000  -0.00000   0.04942  -0.04942
  94        2S         -0.64167  -0.00000   0.00000  -0.02050   0.02050
  95        3S         -5.35759  -0.00000   0.00000  -0.92631   0.92631
  96        4S         -1.88221  -0.00000   0.00000  -2.48908   2.48908
  97        5PX        -0.00018   0.00164  -0.00227   0.00109  -0.00109
  98        5PY         0.00770  -0.00115  -0.00256   0.00839   0.00109
  99        5PZ        -0.00770  -0.00279  -0.00029   0.00109   0.00839
 100        6PX        -0.20503  -0.09298   0.12868   0.00298  -0.00298
 101        6PY         0.16052   0.06495   0.14486  -0.19080   0.00298
 102        6PZ        -0.16052   0.15793   0.01618   0.00298  -0.19080
 103        7PX        -1.38425  -1.35420   1.87427   0.14787  -0.14787
 104        7PY         1.21462   0.94606   2.10991  -1.89295   0.14787
 105        7PZ        -1.21462   2.30026   0.23564   0.14787  -1.89295
 106        8D 0        0.00052   0.00365   0.00037   0.00100   0.00201
 107        8D+1       -0.00666   0.00151   0.00336   0.00336   0.00185
 108        8D-1        0.00649  -0.00216   0.00299   0.00185  -0.00185
 109        8D+2       -0.00090  -0.00037   0.00365   0.00174   0.00000
 110        8D-2        0.00666   0.00367   0.00038   0.00185   0.00336
 111        9D 0       -0.00065   0.13267   0.01359  -0.04784  -0.09568
 112        9D+1       -0.08825   0.05451   0.12157  -0.00950  -0.17697
 113        9D-1        0.03546  -0.07803   0.10800  -0.17697   0.17697
 114        9D+2        0.00112  -0.01359   0.13267  -0.08286   0.00000
 115        9D-2        0.08825   0.13254   0.01358  -0.17697  -0.00950
 116 5   H  1S         -0.03245   0.00000  -0.00000  -0.04942  -0.04942
 117        2S          0.64167  -0.00000   0.00000   0.02050   0.02050
 118        3S          5.35759  -0.00000   0.00000   0.92631   0.92631
 119        4S          1.88221  -0.00000   0.00000   2.48908   2.48908
 120        5PX        -0.00018  -0.00164   0.00227   0.00109   0.00109
 121        5PY         0.00770   0.00115   0.00256   0.00839  -0.00109
 122        5PZ         0.00770  -0.00279  -0.00029  -0.00109   0.00839
 123        6PX        -0.20503   0.09298  -0.12868   0.00298   0.00298
 124        6PY         0.16052  -0.06495  -0.14486  -0.19080  -0.00298
 125        6PZ         0.16052   0.15793   0.01618  -0.00298  -0.19080
 126        7PX        -1.38425   1.35420  -1.87427   0.14787   0.14787
 127        7PY         1.21462  -0.94606  -2.10991  -1.89295  -0.14787
 128        7PZ         1.21462   2.30026   0.23564  -0.14787  -1.89295
 129        8D 0       -0.00052   0.00365   0.00037  -0.00100   0.00201
 130        8D+1       -0.00666  -0.00151  -0.00336   0.00336  -0.00185
 131        8D-1        0.00649   0.00216  -0.00299   0.00185   0.00185
 132        8D+2        0.00090  -0.00037   0.00365  -0.00174   0.00000
 133        8D-2       -0.00666   0.00367   0.00038  -0.00185   0.00336
 134        9D 0        0.00065   0.13267   0.01359   0.04784  -0.09568
 135        9D+1       -0.08825  -0.05451  -0.12157  -0.00950   0.17697
 136        9D-1        0.03546   0.07803  -0.10800  -0.17697  -0.17697
 137        9D+2       -0.00112  -0.01359   0.13267   0.08286   0.00000
 138        9D-2       -0.08825   0.13254   0.01358   0.17697  -0.00950
                          21        22        23        24        25
                        (T2)--V   (A1)--V   (T1)--V   (T1)--V   (T1)--V
     Eigenvalues --     0.31614   0.32393   0.35421   0.35421   0.35421
   1 1   C  1S          0.00000  -0.08247   0.00000   0.00000   0.00000
   2        2S          0.00000   0.12561   0.00000   0.00000   0.00000
   3        3S          0.00000  -0.10566   0.00000   0.00000   0.00000
   4        4S          0.00000   7.14162   0.00000   0.00000   0.00000
   5        5S          0.00000   9.47539   0.00000   0.00000   0.00000
   6        6PX         0.07522   0.00000   0.00000   0.00000   0.00000
   7        6PY         0.00000   0.00000   0.00000   0.00000   0.00000
   8        6PZ         0.00000   0.00000   0.00000   0.00000  -0.00000
   9        7PX        -0.05894   0.00000   0.00000   0.00000   0.00000
  10        7PY         0.00000   0.00000   0.00000   0.00000   0.00000
  11        7PZ         0.00000   0.00000   0.00000   0.00000   0.00000
  12        8PX         4.34507   0.00000   0.00000   0.00000   0.00000
  13        8PY         0.00000   0.00000   0.00000   0.00000   0.00000
  14        8PZ         0.00000   0.00000   0.00000   0.00000  -0.00000
  15        9PX         4.26413   0.00000  -0.00000   0.00000   0.00000
  16        9PY         0.00000   0.00000   0.00000   0.00000   0.00000
  17        9PZ         0.00000   0.00000   0.00000   0.00000  -0.00000
  18       10D 0        0.00000   0.00000   0.00000   0.00000   0.00000
  19       10D+1        0.00000   0.00000   0.00000   0.00000   0.00000
  20       10D-1        0.01347   0.00000   0.00000   0.00000   0.00000
  21       10D+2        0.00000  -0.00000   0.00000   0.00000   0.00000
  22       10D-2        0.00000   0.00000   0.00000   0.00000   0.00000
  23       11D 0        0.00000   0.00000   0.00000   0.00000   0.00000
  24       11D+1        0.00000   0.00000   0.00000  -0.00000   0.00000
  25       11D-1       -0.06948   0.00000   0.00000   0.00000   0.00000
  26       11D+2        0.00000  -0.00000   0.00000   0.00000   0.00000
  27       11D-2        0.00000   0.00000   0.00000   0.00000  -0.00000
  28       12D 0        0.00000   0.00000   0.00000   0.00000   0.00000
  29       12D+1        0.00000   0.00000   0.00000  -0.00000   0.00000
  30       12D-1        0.95442   0.00000   0.00000   0.00000   0.00000
  31       12D+2        0.00000  -0.00000   0.00000   0.00000   0.00000
  32       12D-2        0.00000   0.00000   0.00000   0.00000  -0.00000
  33       13F 0        0.00000   0.00000   0.00000   0.00000   0.00000
  34       13F+1        0.00243   0.00000  -0.00493   0.00000   0.00000
  35       13F-1        0.00000   0.00000   0.00000  -0.00493   0.00000
  36       13F+2        0.00000   0.00000   0.00000   0.00000   0.00623
  37       13F-2        0.00000   0.02962   0.00000   0.00000   0.00000
  38       13F+3       -0.00314   0.00000  -0.00382   0.00000   0.00000
  39       13F-3        0.00000   0.00000   0.00000   0.00382   0.00000
  40       14F 0        0.00000   0.00000   0.00000   0.00000   0.00000
  41       14F+1       -0.06369   0.00000   0.28917   0.00000   0.00000
  42       14F-1        0.00000   0.00000   0.00000   0.28917   0.00000
  43       14F+2        0.00000   0.00000   0.00000   0.00000  -0.36578
  44       14F-2        0.00000   0.36113   0.00000   0.00000   0.00000
  45       14F+3        0.08222   0.00000   0.22399   0.00000   0.00000
  46       14F-3        0.00000   0.00000   0.00000  -0.22399   0.00000
  47 2   H  1S          0.04942  -0.02415  -0.00000  -0.00000  -0.00000
  48        2S         -0.02050  -1.03448  -0.00000  -0.00000   0.00000
  49        3S         -0.92631  -3.70644  -0.00000  -0.00000   0.00000
  50        4S         -2.48908  -0.69686  -0.00000  -0.00000   0.00000
  51        5PX         0.00839  -0.00320   0.00000  -0.00811  -0.00811
  52        5PY        -0.00109  -0.00320  -0.00811   0.00000   0.00811
  53        5PZ        -0.00109  -0.00320   0.00811   0.00811  -0.00000
  54        6PX        -0.19080   0.15350   0.00000   0.17525   0.17525
  55        6PY        -0.00298   0.15350   0.17525  -0.00000  -0.17525
  56        6PZ        -0.00298   0.15350  -0.17525  -0.17525  -0.00000
  57        7PX        -1.89295  -0.26374   0.00000   1.53431   1.53431
  58        7PY        -0.14787  -0.26374   1.53431   0.00000  -1.53431
  59        7PZ        -0.14787  -0.26374  -1.53431  -1.53431  -0.00000
  60        8D 0        0.00100   0.00000  -0.00131  -0.00131   0.00000
  61        8D+1       -0.00185  -0.01209  -0.00640  -0.00000   0.00640
  62        8D-1        0.00336  -0.01209  -0.00000  -0.00640  -0.00640
  63        8D+2       -0.00174  -0.00000  -0.00076   0.00076   0.00151
  64        8D-2       -0.00185  -0.01209   0.00640   0.00640  -0.00000
  65        9D 0       -0.04784   0.00000   0.23357   0.23357   0.00000
  66        9D+1        0.17697   0.07446   0.14479  -0.00000  -0.14479
  67        9D-1       -0.00950   0.07446  -0.00000   0.14479   0.14479
  68        9D+2        0.08286  -0.00000   0.13485  -0.13485  -0.26970
  69        9D-2        0.17697   0.07446  -0.14479  -0.14479  -0.00000
  70 3   H  1S         -0.04942  -0.02415   0.00000   0.00000  -0.00000
  71        2S          0.02050  -1.03448   0.00000   0.00000   0.00000
  72        3S          0.92631  -3.70644   0.00000   0.00000   0.00000
  73        4S          2.48908  -0.69686   0.00000   0.00000   0.00000
  74        5PX         0.00839   0.00320   0.00000  -0.00811   0.00811
  75        5PY        -0.00109   0.00320  -0.00811   0.00000  -0.00811
  76        5PZ         0.00109  -0.00320  -0.00811  -0.00811  -0.00000
  77        6PX        -0.19080  -0.15350   0.00000   0.17525  -0.17525
  78        6PY        -0.00298  -0.15350   0.17525  -0.00000   0.17525
  79        6PZ         0.00298   0.15350   0.17525   0.17525  -0.00000
  80        7PX        -1.89295   0.26374   0.00000   1.53431  -1.53431
  81        7PY        -0.14787   0.26374   1.53431   0.00000   1.53431
  82        7PZ         0.14787  -0.26374   1.53431   1.53431  -0.00000
  83        8D 0       -0.00100   0.00000   0.00131   0.00131   0.00000
  84        8D+1       -0.00185   0.01209  -0.00640  -0.00000  -0.00640
  85        8D-1        0.00336   0.01209  -0.00000  -0.00640   0.00640
  86        8D+2        0.00174  -0.00000   0.00076  -0.00076   0.00151
  87        8D-2        0.00185  -0.01209  -0.00640  -0.00640  -0.00000
  88        9D 0        0.04784   0.00000  -0.23357  -0.23357   0.00000
  89        9D+1        0.17697  -0.07446   0.14479  -0.00000   0.14479
  90        9D-1       -0.00950  -0.07446  -0.00000   0.14479  -0.14479
  91        9D+2       -0.08286  -0.00000  -0.13485   0.13485  -0.26970
  92        9D-2       -0.17697   0.07446   0.14479   0.14479  -0.00000
  93 4   H  1S         -0.04942  -0.02415   0.00000  -0.00000   0.00000
  94        2S          0.02050  -1.03448   0.00000  -0.00000  -0.00000
  95        3S          0.92631  -3.70644   0.00000  -0.00000  -0.00000
  96        4S          2.48908  -0.69686   0.00000  -0.00000  -0.00000
  97        5PX         0.00839   0.00320   0.00000   0.00811  -0.00811
  98        5PY         0.00109  -0.00320   0.00811   0.00000  -0.00811
  99        5PZ        -0.00109   0.00320   0.00811  -0.00811  -0.00000
 100        6PX        -0.19080  -0.15350   0.00000  -0.17525   0.17525
 101        6PY         0.00298   0.15350  -0.17525  -0.00000   0.17525
 102        6PZ        -0.00298  -0.15350  -0.17525   0.17525  -0.00000
 103        7PX        -1.89295   0.26374   0.00000  -1.53431   1.53431
 104        7PY         0.14787  -0.26374  -1.53431   0.00000   1.53431
 105        7PZ        -0.14787   0.26374  -1.53431   1.53431  -0.00000
 106        8D 0       -0.00100   0.00000   0.00131  -0.00131  -0.00000
 107        8D+1        0.00185  -0.01209   0.00640  -0.00000  -0.00640
 108        8D-1        0.00336   0.01209  -0.00000   0.00640  -0.00640
 109        8D+2        0.00174  -0.00000   0.00076   0.00076  -0.00151
 110        8D-2       -0.00185   0.01209   0.00640  -0.00640  -0.00000
 111        9D 0        0.04784   0.00000  -0.23357   0.23357  -0.00000
 112        9D+1       -0.17697   0.07446  -0.14479  -0.00000   0.14479
 113        9D-1       -0.00950  -0.07446  -0.00000  -0.14479   0.14479
 114        9D+2       -0.08286  -0.00000  -0.13485  -0.13485   0.26970
 115        9D-2        0.17697  -0.07446  -0.14479   0.14479  -0.00000
 116 5   H  1S          0.04942  -0.02415  -0.00000   0.00000   0.00000
 117        2S         -0.02050  -1.03448  -0.00000   0.00000  -0.00000
 118        3S         -0.92631  -3.70644  -0.00000   0.00000  -0.00000
 119        4S         -2.48908  -0.69686  -0.00000   0.00000  -0.00000
 120        5PX         0.00839  -0.00320   0.00000   0.00811   0.00811
 121        5PY         0.00109   0.00320   0.00811   0.00000   0.00811
 122        5PZ         0.00109   0.00320  -0.00811   0.00811  -0.00000
 123        6PX        -0.19080   0.15350   0.00000  -0.17525  -0.17525
 124        6PY         0.00298  -0.15350  -0.17525  -0.00000  -0.17525
 125        6PZ         0.00298  -0.15350   0.17525  -0.17525  -0.00000
 126        7PX        -1.89295  -0.26374   0.00000  -1.53431  -1.53431
 127        7PY         0.14787   0.26374  -1.53431   0.00000  -1.53431
 128        7PZ         0.14787   0.26374   1.53431  -1.53431  -0.00000
 129        8D 0        0.00100   0.00000  -0.00131   0.00131  -0.00000
 130        8D+1        0.00185   0.01209   0.00640  -0.00000   0.00640
 131        8D-1        0.00336  -0.01209  -0.00000   0.00640   0.00640
 132        8D+2       -0.00174  -0.00000  -0.00076  -0.00076  -0.00151
 133        8D-2        0.00185   0.01209  -0.00640   0.00640  -0.00000
 134        9D 0       -0.04784   0.00000   0.23357  -0.23357  -0.00000
 135        9D+1       -0.17697  -0.07446  -0.14479  -0.00000  -0.14479
 136        9D-1       -0.00950   0.07446  -0.00000  -0.14479  -0.14479
 137        9D+2        0.08286  -0.00000   0.13485   0.13485   0.26970
 138        9D-2       -0.17697  -0.07446   0.14479  -0.14479  -0.00000
                          26        27        28        29        30
                        (A1)--V   (T2)--V   (T2)--V   (T2)--V   (T2)--V
     Eigenvalues --     0.38329   0.38574   0.38574   0.38574   0.42819
   1 1   C  1S         -0.07766   0.00000   0.00000   0.00000   0.00000
   2        2S          0.30325   0.00000   0.00000   0.00000   0.00000
   3        3S         -0.01669   0.00000   0.00000   0.00000   0.00000
   4        4S         23.55347   0.00000   0.00000   0.00000   0.00000
   5        5S          7.07238   0.00000   0.00000   0.00000   0.00000
   6        6PX         0.00000  -0.09928   0.00000   0.00000   0.00000
   7        6PY         0.00000   0.00000  -0.09928   0.00000  -0.14500
   8        6PZ         0.00000   0.00000   0.00000  -0.09928   0.00000
   9        7PX         0.00000  -0.35696   0.00000   0.00000   0.00000
  10        7PY         0.00000   0.00000  -0.35696   0.00000  -1.49240
  11        7PZ         0.00000   0.00000   0.00000  -0.35696   0.00000
  12        8PX         0.00000  -2.85896   0.00000   0.00000   0.00000
  13        8PY         0.00000   0.00000  -2.85896   0.00000 -13.21722
  14        8PZ         0.00000   0.00000   0.00000  -2.85896   0.00000
  15        9PX         0.00000  -1.53778   0.00000   0.00000   0.00000
  16        9PY         0.00000   0.00000  -1.53778   0.00000  -1.36556
  17        9PZ         0.00000   0.00000   0.00000  -1.53778   0.00000
  18       10D 0        0.00000   0.00000   0.00000   0.00000   0.00000
  19       10D+1        0.00000   0.00000  -0.01048   0.00000   0.00557
  20       10D-1        0.00000  -0.01048   0.00000   0.00000   0.00000
  21       10D+2       -0.00000   0.00000   0.00000   0.00000   0.00000
  22       10D-2        0.00000   0.00000   0.00000  -0.01048   0.00000
  23       11D 0        0.00000   0.00000   0.00000   0.00000   0.00000
  24       11D+1        0.00000   0.00000   0.52461   0.00000  -1.47856
  25       11D-1        0.00000   0.52461   0.00000   0.00000   0.00000
  26       11D+2       -0.00000   0.00000   0.00000   0.00000   0.00000
  27       11D-2        0.00000   0.00000   0.00000   0.52461   0.00000
  28       12D 0        0.00000   0.00000   0.00000   0.00000   0.00000
  29       12D+1        0.00000   0.00000   4.16968   0.00000  -5.51976
  30       12D-1        0.00000   4.16968   0.00000   0.00000   0.00000
  31       12D+2       -0.00000   0.00000   0.00000   0.00000   0.00000
  32       12D-2        0.00000   0.00000   0.00000   4.16968   0.00000
  33       13F 0        0.00000   0.00000   0.00000  -0.01305   0.00000
  34       13F+1        0.00000   0.00799   0.00000   0.00000   0.00000
  35       13F-1        0.00000   0.00000   0.00799   0.00000  -0.02665
  36       13F+2        0.00000   0.00000   0.00000   0.00000   0.00000
  37       13F-2        0.05090   0.00000   0.00000   0.00000   0.00000
  38       13F+3        0.00000  -0.01032   0.00000   0.00000   0.00000
  39       13F-3        0.00000   0.00000   0.01032   0.00000  -0.03441
  40       14F 0        0.00000   0.00000   0.00000  -0.09778   0.00000
  41       14F+1        0.00000   0.05988   0.00000   0.00000   0.00000
  42       14F-1        0.00000   0.00000   0.05988   0.00000  -0.25043
  43       14F+2        0.00000   0.00000   0.00000   0.00000   0.00000
  44       14F-2        0.40791   0.00000   0.00000   0.00000   0.00000
[...]
      X   X                                                                                                                          
      X   X                                                                                                                          
      X   X                                                                                                                          
      X   X                                                                                                                          
      X   X                                                                                                                          
      X   X                                                                                                                          
      X   X                                                                                                                          
      X   X                                                                                                                          
          X                                                                                                                          
          X                                                                                                                          
          X                                                                                                                          
          X                                                                                                                          
          X                                                                                                                          
          X                                                                                                                          
          X                                                                                                                          
          X                                                                                                                          
 
 ***** Axes restored to original set *****
 -------------------------------------------------------------------
 Center     Atomic                   Forces (Hartrees/Bohr)
 Number     Number              X              Y              Z
 -------------------------------------------------------------------
      1        6          -0.000000000    0.000000000    0.000000000
      2        1          -0.000000004    0.000000012    0.000000000
      3        1          -0.000000004   -0.000000006   -0.000000010
      4        1          -0.000000004   -0.000000006    0.000000010
      5        1           0.000000013   -0.000000000    0.000000000
 -------------------------------------------------------------------
 Cartesian Forces:  Max     0.000000013 RMS     0.000000007
 Force constants in Cartesian coordinates: 
                1             2             3             4             5 
      1  0.551093D+00
      2  0.000000D+00  0.551093D+00
      3  0.000000D+00  0.000000D+00  0.551093D+00
      4 -0.763031D-01  0.869262D-01  0.000000D+00  0.786333D-01
      5  0.869262D-01 -0.291445D+00  0.000000D+00 -0.951729D-01  0.314186D+00
      6  0.000000D+00  0.000000D+00 -0.455712D-01  0.000000D+00  0.000000D+00
      7 -0.763063D-01 -0.434648D-01 -0.752839D-01  0.311076D-02  0.470517D-02
      8 -0.434648D-01 -0.107038D+00 -0.106465D+00 -0.116265D-01 -0.124568D-01
      9 -0.752839D-01 -0.106465D+00 -0.229975D+00  0.127920D-02  0.152123D-02
     10 -0.763063D-01 -0.434648D-01  0.752839D-01  0.311076D-02  0.470517D-02
     11 -0.434648D-01 -0.107038D+00  0.106465D+00 -0.116265D-01 -0.124568D-01
     12  0.752839D-01  0.106465D+00 -0.229975D+00 -0.127920D-02 -0.152123D-02
     13 -0.322177D+00  0.340096D-05  0.000000D+00 -0.855173D-02 -0.116364D-02
     14  0.340000D-05 -0.455712D-01  0.000000D+00  0.314997D-01  0.217285D-02
     15  0.000000D+00  0.000000D+00 -0.455712D-01  0.000000D+00  0.000000D+00
                6             7             8             9            10 
      6  0.449859D-01
      7  0.107080D-01  0.786368D-01
      8 -0.251484D-01  0.475883D-01  0.112284D+00
      9  0.118417D-02  0.824261D-01  0.116565D+00  0.246884D+00
     10 -0.107080D-01  0.311101D-02  0.692102D-02 -0.942926D-02  0.786368D-01
     11  0.251484D-01  0.692102D-02  0.800453D-02 -0.133346D-01  0.475883D-01
     12  0.118417D-02  0.942926D-02  0.133346D-01 -0.192774D-01 -0.824261D-01
     13  0.000000D+00 -0.855229D-02  0.581980D-03  0.100787D-02 -0.855228D-02
     14  0.000000D+00 -0.157497D-01 -0.793765D-03  0.171309D-02 -0.157497D-01
     15 -0.178301D-02 -0.272794D-01  0.171344D-02  0.118417D-02  0.272794D-01
               11            12            13            14            15 
     11  0.112284D+00
     12 -0.116565D+00  0.246884D+00
     13  0.581980D-03 -0.100787D-02  0.347833D+00
     14 -0.793765D-03 -0.171309D-02 -0.372226D-05  0.449859D-01
     15 -0.171344D-02  0.118417D-02  0.000000D+00  0.000000D+00  0.449859D-01
 FormGI is forming the generalized inverse of G from B-inverse, IUseBI=4.
 Force constants in internal coordinates: 
                1             2             3             4             5 
      1  0.347833D+00
      2  0.175349D-02  0.347833D+00
      3  0.175349D-02  0.175349D-02  0.347833D+00
      4  0.175349D-02  0.175349D-02  0.175349D-02  0.347833D+00
      5  0.191541D-02  0.191541D-02 -0.120270D-02 -0.262812D-02  0.194729D-01
      6  0.300190D-02 -0.774684D-03  0.334083D-02 -0.556804D-02 -0.865587D-02
      7  0.586630D-02 -0.470814D-02 -0.521169D-02  0.405354D-02 -0.129112D-01
      8 -0.774684D-03  0.300190D-02  0.334083D-02 -0.556804D-02 -0.865587D-02
      9 -0.470814D-02  0.586630D-02 -0.521169D-02  0.405354D-02 -0.129112D-01
     10 -0.530078D-02 -0.530078D-02  0.494442D-02  0.565713D-02  0.236613D-01
     11 -0.370977D-02 -0.370977D-02 -0.261866D-02  0.100382D-01 -0.132481D-01
     12  0.305511D-02  0.305511D-02 -0.785599D-02  0.174578D-02  0.803638D-02
     13 -0.402287D-02  0.707798D-02 -0.392799D-02  0.872887D-03  0.401819D-02
     14 -0.707798D-02  0.402287D-02  0.392799D-02 -0.872888D-03 -0.401819D-02
                6             7             8             9            10 
      6  0.366969D-01
      7 -0.223099D-01  0.716931D-01
      8 -0.207149D-02  0.245493D-01  0.366969D-01
      9  0.245493D-01 -0.347881D-01 -0.223099D-01  0.716931D-01
     10 -0.282089D-01 -0.262332D-01 -0.282089D-01 -0.262332D-01  0.852230D-01
     11 -0.106024D-01  0.144416D-01 -0.106024D-01  0.144416D-01  0.556971D-02
     12 -0.922989D-02  0.678666D-02 -0.922989D-02  0.678666D-02 -0.314992D-02
     13 -0.140080D-01 -0.514474D-03  0.477811D-02  0.730114D-02 -0.157496D-02
     14 -0.477811D-02 -0.730114D-02  0.140080D-01  0.514474D-03  0.157496D-02
               11            12            13            14 
     11  0.292108D-01
     12  0.146175D-02  0.181544D-01
     13  0.730875D-03  0.907722D-02  0.184357D-01
     14 -0.730875D-03 -0.907722D-02  0.935852D-02  0.184357D-01
 Leave Link  716 at Fri Sep  6 16:36:38 2024, MaxMem=   536870912 cpu:               0.1 elap:               0.0
 (Enter /Users/asuyarger/Applications/G16/g16/l103.exe)

 GradGradGradGradGradGradGradGradGradGradGradGradGradGradGradGradGradGrad
 Berny optimization.
 Red2BG is reusing G-inverse.
 Internal  Forces:  Max     0.000000013 RMS     0.000000007
 Search for a local minimum.
 Step number   1 out of a maximum of    2
 All quantities printed in internal units (Hartrees-Bohrs-Radians)
 Second derivative matrix not updated -- analytic derivatives used.
 The second derivative matrix:
                          R1        R2        R3        R4        A1
           R1           0.34783
           R2           0.00175   0.34783
           R3           0.00175   0.00175   0.34783
           R4           0.00175   0.00175   0.00175   0.34783
           A1           0.00192   0.00192  -0.00120  -0.00263   0.01947
           A2           0.00300  -0.00077   0.00334  -0.00557  -0.00866
           A3           0.00587  -0.00471  -0.00521   0.00405  -0.01291
           A4          -0.00077   0.00300   0.00334  -0.00557  -0.00866
           A5          -0.00471   0.00587  -0.00521   0.00405  -0.01291
           A6          -0.00530  -0.00530   0.00494   0.00566   0.02366
           D1          -0.00371  -0.00371  -0.00262   0.01004  -0.01325
           D2           0.00306   0.00306  -0.00786   0.00175   0.00804
           D3          -0.00402   0.00708  -0.00393   0.00087   0.00402
           D4          -0.00708   0.00402   0.00393  -0.00087  -0.00402
                          A2        A3        A4        A5        A6
           A2           0.03670
           A3          -0.02231   0.07169
           A4          -0.00207   0.02455   0.03670
           A5           0.02455  -0.03479  -0.02231   0.07169
           A6          -0.02821  -0.02623  -0.02821  -0.02623   0.08522
           D1          -0.01060   0.01444  -0.01060   0.01444   0.00557
           D2          -0.00923   0.00679  -0.00923   0.00679  -0.00315
           D3          -0.01401  -0.00051   0.00478   0.00730  -0.00157
           D4          -0.00478  -0.00730   0.01401   0.00051   0.00157
                          D1        D2        D3        D4
           D1           0.02921
           D2           0.00146   0.01815
           D3           0.00073   0.00908   0.01844
           D4          -0.00073  -0.00908   0.00936   0.01844
 ITU=  0
     Eigenvalues ---    0.03724   0.04195   0.06372   0.12967   0.13020
     Eigenvalues ---    0.34696   0.34697   0.34724   0.35309
 Angle between quadratic step and forces=  90.00 degrees.
 Linear search not attempted -- first point.
 Iteration  1 RMS(Cart)=  0.00000002 RMS(Int)=  0.00000000
 ITry= 1 IFail=0 DXMaxC= 3.57D-08 DCOld= 1.00D+10 DXMaxT= 3.00D-01 DXLimC= 3.00D+00 Rises=F
 ClnCor:  largest displacement from symmetrization is 8.20D-14 for atom     2.
 Variable       Old X    -DE/DX   Delta X   Delta X   Delta X     New X
                                 (Linear)    (Quad)   (Total)
    R1        2.05567  -0.00000   0.00000  -0.00000  -0.00000   2.05567
    R2        2.05567  -0.00000   0.00000  -0.00000  -0.00000   2.05567
    R3        2.05567  -0.00000   0.00000  -0.00000  -0.00000   2.05567
    R4        2.05567  -0.00000   0.00000  -0.00000  -0.00000   2.05567
    A1        1.91063  -0.00000   0.00000  -0.00000   0.00000   1.91063
    A2        1.91063  -0.00000   0.00000  -0.00000   0.00000   1.91063
    A3        1.91063   0.00000   0.00000   0.00000   0.00000   1.91063
    A4        1.91063   0.00000   0.00000   0.00000   0.00000   1.91063
    A5        1.91063  -0.00000   0.00000  -0.00000  -0.00000   1.91063
    A6        1.91063  -0.00000   0.00000   0.00000  -0.00000   1.91063
    D1       -2.09440   0.00000   0.00000   0.00000   0.00000  -2.09440
    D2        2.09440  -0.00000   0.00000  -0.00000   0.00000   2.09440
    D3       -2.09440  -0.00000   0.00000  -0.00000   0.00000  -2.09440
    D4        2.09440  -0.00000   0.00000   0.00000   0.00000   2.09440
         Item               Value     Threshold  Converged?
 Maximum Force            0.000000     0.000015     YES
 RMS     Force            0.000000     0.000010     YES
 Maximum Displacement     0.000000     0.000060     YES
 RMS     Displacement     0.000000     0.000040     YES
 Predicted change in Energy=-8.983771D-16
 Optimization completed.
    -- Stationary point found.
                           ----------------------------
                           !   Optimized Parameters   !
                           ! (Angstroms and Degrees)  !
 --------------------------                            --------------------------
 ! Name  Definition              Value          Derivative Info.                !
 --------------------------------------------------------------------------------
 ! R1    R(1,2)                  1.0878         -DE/DX =    0.0                 !
 ! R2    R(1,3)                  1.0878         -DE/DX =    0.0                 !
 ! R3    R(1,4)                  1.0878         -DE/DX =    0.0                 !
 ! R4    R(1,5)                  1.0878         -DE/DX =    0.0                 !
 ! A1    A(2,1,3)              109.4712         -DE/DX =    0.0                 !
 ! A2    A(2,1,4)              109.4712         -DE/DX =    0.0                 !
 ! A3    A(2,1,5)              109.4712         -DE/DX =    0.0                 !
 ! A4    A(3,1,4)              109.4712         -DE/DX =    0.0                 !
 ! A5    A(3,1,5)              109.4712         -DE/DX =    0.0                 !
 ! A6    A(4,1,5)              109.4712         -DE/DX =    0.0                 !
 ! D1    D(2,1,4,3)           -120.0            -DE/DX =    0.0                 !
 ! D2    D(2,1,5,3)            120.0            -DE/DX =    0.0                 !
 ! D3    D(2,1,5,4)           -120.0            -DE/DX =    0.0                 !
 ! D4    D(3,1,5,4)            120.0            -DE/DX =    0.0                 !
 --------------------------------------------------------------------------------
 GradGradGradGradGradGradGradGradGradGradGradGradGradGradGradGradGradGrad

 Leave Link  103 at Fri Sep  6 16:36:38 2024, MaxMem=   536870912 cpu:               0.0 elap:               0.0
 (Enter /Users/asuyarger/Applications/G16/g16/l9999.exe)
 Dipole is zero, so no output in dipole orientation.

 ----------------------------------------------------------------------

 Electric dipole moment (input orientation):
 (Debye = 10**-18 statcoulomb cm , SI units = C m)
                  (au)            (Debye)         (10**-30 SI)
   Tot        0.000000D+00      0.000000D+00      0.000000D+00
   x          0.000000D+00      0.000000D+00      0.000000D+00
   y          0.000000D+00      0.000000D+00      0.000000D+00
   z          0.000000D+00      0.000000D+00      0.000000D+00

 Dipole polarizability, Alpha (input orientation).
 (esu units = cm**3 , SI units = C**2 m**2 J**-1)
 Alpha(0;0):
               (au)            (10**-24 esu)      (10**-40 SI)
   iso        0.168106D+02      0.249107D+01      0.277169D+01
   aniso      0.000000D+00      0.000000D+00      0.000000D+00
   xx         0.168106D+02      0.249107D+01      0.277169D+01
   yx         0.000000D+00      0.000000D+00      0.000000D+00
   yy         0.168106D+02      0.249107D+01      0.277169D+01
   zx         0.000000D+00      0.000000D+00      0.000000D+00
   zy         0.000000D+00      0.000000D+00      0.000000D+00
   zz         0.168106D+02      0.249107D+01      0.277169D+01

 First dipole hyperpolarizability, Beta (input orientation).
 ||, _|_  parallel and perpendicular components, (z) with respect to z axis,
 vector components x,y,z.  Values do not include the 1/n! factor of 1/2.
 (esu units = statvolt**-1 cm**4 , SI units = C**3 m**3 J**-2)
 Beta(0;0,0):
               (au)            (10**-30 esu)      (10**-50 SI)
   || (z)     0.000000D+00      0.000000D+00      0.000000D+00
   _|_(z)     0.000000D+00      0.000000D+00      0.000000D+00
   x          0.000000D+00      0.000000D+00      0.000000D+00
   y          0.000000D+00      0.000000D+00      0.000000D+00
   z          0.000000D+00      0.000000D+00      0.000000D+00
   ||         0.000000D+00      0.000000D+00      0.000000D+00
   xxx       -0.113346D+02     -0.979225D-01     -0.363430D-01
   xxy        0.278624D-03      0.240710D-05      0.893370D-06
   yxy        0.566722D+01      0.489604D-01      0.181712D-01
   yyy       -0.801501D+01     -0.692435D-01     -0.256990D-01
   xxz        0.000000D+00      0.000000D+00      0.000000D+00
   yxz        0.000000D+00      0.000000D+00      0.000000D+00
   yyz        0.000000D+00      0.000000D+00      0.000000D+00
   zxz        0.566742D+01      0.489621D-01      0.181718D-01
   zyz        0.801473D+01      0.692411D-01      0.256981D-01
   zzz        0.000000D+00      0.000000D+00      0.000000D+00

 ----------------------------------------------------------------------
 1\1\GINC-JEFFSMACSTUDIO\Freq\RwB97XD\Aug-CC-pVTZ\C1H4\ROOT\06-Sep-2024
 \0\\#P Geom=AllCheck Guess=TCheck SCRF=Check GenChk RwB97XD/Aug-CC-pVT
 Z Freq\\CH4 DFT B3LPY aug-cc-pVTZ Opt Freq - Full - NBO\\0,1\C,-0.0813
 74299,0.28028924,0.\H,0.2812176423,-0.7453157524,-0.0000000142\H,0.281
 2365632,0.7930850433,0.8881961175\H,0.281236538,0.793085059,-0.8881961
 188\H,-1.1691879394,0.2803026102,0.0000000154\\Version=EM64M-G16RevA.0
 3\State=1-A1\HF=-40.5200736\RMSD=1.428e-10\RMSF=6.503e-09\ZeroPoint=0.
 0448404\Thermal=0.0477087\Dipole=0.,0.,0.\DipoleDeriv=-0.0046309,0.,0.
 ,0.,-0.0046309,0.,0.,0.,-0.0046309,0.0459304,0.063314,0.,0.063314,-0.1
 107716,0.,0.,0.,0.0683144,0.0459281,-0.0316582,-0.0548342,-0.0316582,0
 .0235441,-0.0775452,-0.0548342,-0.0775452,-0.065999,0.0459281,-0.03165
 82,0.0548342,-0.0316582,0.0235441,0.0775452,0.0548342,0.0775452,-0.065
 999,-0.1331557,0.0000025,0.,0.0000025,0.0683144,0.,0.,0.,0.0683144\Pol
 ar=16.8105699,0.,16.8105699,0.,0.,16.8105699\PolarDeriv=6.6306334,-0.0
 001627,-3.3152593,-0.0000002,0.,-3.3153742,-0.0001633,-3.3152595,4.688
 689,0.,0.0000002,-4.6885256,-0.0000002,0.,0.0000002,-3.3153744,-4.6885
 25,0.,0.7917657,-1.279751,2.3732947,0.,0.,0.8407754,-2.2011724,2.04753
 57,-7.8294812,0.,0.,-1.3000042,0.,0.,-0.0000001,0.5150165,-0.3785828,0
 .,0.7918535,0.6399141,1.2239392,1.1083518,0.6636272,1.9902521,1.100618
 9,0.8981633,1.7500681,0.6636272,1.5775703,2.814568,1.9063227,0.6636272
 ,2.3755412,1.6644762,2.3538633,5.5307309,0.7918534,0.6399141,1.2239392
 ,-1.1083517,-0.6636272,1.990252,1.1006188,0.8981633,1.7500682,-0.66362
 72,-1.5775704,2.8145681,-1.9063226,-0.6636272,-2.3755413,1.6644761,2.3
 538634,-5.5307309,-9.0061056,0.0000857,-1.5059142,0.0000001,0.,-1.5059
 054,0.0000977,-0.5286035,-0.3593429,0.,0.,0.3593929,0.0000001,0.,0.,-0
 .5285946,0.3593809,0.\HyperPolar=-11.3346447,0.0002786,5.6672239,-8.01
 50131,0.0000003,0.0000001,-0.0000003,5.6674209,8.0147345,0.\Quadrupole
 =0.,0.,0.,0.,0.,0.\PG=TD [O(C1),4C3(H1)]\NImag=0\\0.55109263,0.,0.5510
 9266,0.,0.,0.55109263,-0.07630307,0.08692617,0.,0.07863327,0.08692617,
 -0.29144519,0.,-0.09517287,0.31418594,0.,0.,-0.04557123,0.,0.,0.044985
 90,-0.07630627,-0.04346479,-0.07528387,0.00311076,0.00470517,0.0107079
 6,0.07863678,-0.04346479,-0.10703811,-0.10646469,-0.01162650,-0.012456
 81,-0.02514839,0.04758830,0.11228415,-0.07528387,-0.10646469,-0.229975
 09,0.00127920,0.00152123,0.00118417,0.08242606,0.11656501,0.24688418,-
 0.07630627,-0.04346478,0.07528387,0.00311076,0.00470517,-0.01070796,0.
 00311101,0.00692102,-0.00942926,0.07863678,-0.04346478,-0.10703811,0.1
 0646470,-0.01162650,-0.01245681,0.02514839,0.00692102,0.00800453,-0.01
 333464,0.04758829,0.11228416,0.07528387,0.10646470,-0.22997509,-0.0012
 7920,-0.00152123,0.00118417,0.00942926,0.01333464,-0.01927742,-0.08242
 606,-0.11656502,0.24688418,-0.32217702,0.00000340,0.,-0.00855173,-0.00
 116364,0.,-0.00855229,0.00058198,0.00100787,-0.00855228,0.00058198,-0.
 00100787,0.34783332,0.00000340,-0.04557123,0.,0.03149970,0.00217285,0.
 ,-0.01574969,-0.00079376,0.00171309,-0.01574969,-0.00079376,-0.0017130
 9,-0.00000372,0.04498590,0.,0.,-0.04557122,0.,0.,-0.00178301,-0.027279
 41,0.00171344,0.00118417,0.02727941,-0.00171344,0.00118417,0.,0.,0.044
 98590\\0.,0.,0.,0.,-0.00000001,0.,0.,0.,0.00000001,0.,0.,-0.00000001,-
 0.00000001,0.,0.\\\@


 WE HAVE LEFT UNDONE THOSE THINGS WHICH WE OUGHT TO HAVE DONE,
 AND WE HAVE DONE THOSE THINGS WHICH WE OUGHT NOT TO HAVE DONE.
                   BOOK OF COMMON PRAYER                      
 Job cpu time:       0 days  0 hours  0 minutes 17.0 seconds.
 Elapsed time:       0 days  0 hours  0 minutes 16.5 seconds.
 File lengths (MBytes):  RWF=     16 Int=      0 D2E=      0 Chk=      3 Scr=      1
 Normal termination of Gaussian 16 at Fri Sep  6 16:36:38 2024.
