 Entering Gaussian System, Link 0=g16
 Input=/Users/asuyarger/Downloads/CH4_HF_6311pp2d3p_Opt_Freq_Full_NBO_Raman.gjf
 Output=/Users/asuyarger/Downloads/CH4_HF_6311pp2d3p_Opt_Freq_Full_NBO_Raman.log
 Initial command:
 /Users/asuyarger/Applications/G16/g16/l1.exe "/Users/asuyarger/Applications/G16/scratch/Gau-92863.inp" -scrdir="/Users/asuyarger/Applications/G16/scratch/"
 Entering Link 1 = /Users/asuyarger/Applications/G16/g16/l1.exe PID=     92864.
  
 Copyright (c) 1988,1990,1992,1993,1995,1998,2003,2009,2016,
            Gaussian, Inc.  All Rights Reserved.
  
 This is part of the Gaussian(R) 16 program.  It is based on
 the Gaussian(R) 09 system (copyright 2009, Gaussian, Inc.),
 the Gaussian(R) 03 system (copyright 2003, Gaussian, Inc.),
 the Gaussian(R) 98 system (copyright 1998, Gaussian, Inc.),
 the Gaussian(R) 94 system (copyright 1995, Gaussian, Inc.),
 the Gaussian 92(TM) system (copyright 1992, Gaussian, Inc.),
 the Gaussian 90(TM) system (copyright 1990, Gaussian, Inc.),
 the Gaussian 88(TM) system (copyright 1988, Gaussian, Inc.),
 the Gaussian 86(TM) system (copyright 1986, Carnegie Mellon
 University), and the Gaussian 82(TM) system (copyright 1983,
 Carnegie Mellon University). Gaussian is a federally registered
 trademark of Gaussian, Inc.
  
 This software contains proprietary and confidential information,
 including trade secrets, belonging to Gaussian, Inc.
  
 This software is provided under written license and may be
 used, copied, transmitted, or stored only in accord with that
 written license.
  
 The following legend is applicable only to US Government
 contracts under FAR:
  
                    RESTRICTED RIGHTS LEGEND
  
 Use, reproduction and disclosure by the US Government is
 subject to restrictions as set forth in subparagraphs (a)
 and (c) of the Commercial Computer Software - Restricted
 Rights clause in FAR 52.227-19.
  
 Gaussian, Inc.
 340 Quinnipiac St., Bldg. 40, Wallingford CT 06492
  
  
 ---------------------------------------------------------------
 Warning -- This program may not be used in any manner that
 competes with the business of Gaussian, Inc. or will provide
 assistance to any competitor of Gaussian, Inc.  The licensee
 of this program is prohibited from giving any competitor of
 Gaussian, Inc. access to this program.  By using this program,
 the user acknowledges that Gaussian, Inc. is engaged in the
 business of creating and licensing software in the field of
 computational chemistry and represents and warrants to the
 licensee that it is not a competitor of Gaussian, Inc. and that
 it will not use this program in any manner prohibited above.
 ---------------------------------------------------------------
  

 Cite this work as:
 Gaussian 16, Revision A.03,
 M. J. Frisch, G. W. Trucks, H. B. Schlegel, G. E. Scuseria, 
 M. A. Robb, J. R. Cheeseman, G. Scalmani, V. Barone, 
 G. A. Petersson, H. Nakatsuji, X. Li, M. Caricato, A. V. Marenich, 
 J. Bloino, B. G. Janesko, R. Gomperts, B. Mennucci, H. P. Hratchian, 
 J. V. Ortiz, A. F. Izmaylov, J. L. Sonnenberg, D. Williams-Young, 
 F. Ding, F. Lipparini, F. Egidi, J. Goings, B. Peng, A. Petrone, 
 T. Henderson, D. Ranasinghe, V. G. Zakrzewski, J. Gao, N. Rega, 
 G. Zheng, W. Liang, M. Hada, M. Ehara, K. Toyota, R. Fukuda, 
 J. Hasegawa, M. Ishida, T. Nakajima, Y. Honda, O. Kitao, H. Nakai, 
 T. Vreven, K. Throssell, J. A. Montgomery, Jr., J. E. Peralta, 
 F. Ogliaro, M. J. Bearpark, J. J. Heyd, E. N. Brothers, K. N. Kudin, 
 V. N. Staroverov, T. A. Keith, R. Kobayashi, J. Normand, 
 K. Raghavachari, A. P. Rendell, J. C. Burant, S. S. Iyengar, 
 J. Tomasi, M. Cossi, J. M. Millam, M. Klene, C. Adamo, R. Cammi, 
 J. W. Ochterski, R. L. Martin, K. Morokuma, O. Farkas, 
 J. B. Foresman, and D. J. Fox, Gaussian, Inc., Wallingford CT, 2016.
 
 ******************************************
 Gaussian 16:  EM64M-G16RevA.03 25-Dec-2016
                 6-Sep-2024 
 ******************************************
 %nprocshared=4
 Will use up to    4 processors via shared memory.
 %mem=4GB
 %chk=CH4_HF_6311pp2d3p_Opt_Freq_Full_NBO_Raman.chk
 ----------------------------------------------------------------------
 #p opt=tight freq=raman hf/6-311++g(2d,3p) guess=save pop=(hirshfeld,f
 ull,nbo) geom=connectivity polar
 ----------------------------------------------------------------------
 1/7=10,18=20,19=15,38=1,57=2/1,3;
 2/9=110,12=2,17=6,18=5,40=1/2;
 3/5=4,6=6,7=1512,11=9,25=1,30=1,71=1/1,2,3;
 4//1;
 5/5=2,38=5,98=1/2;
 6/7=3,28=1,40=1,79=1/1,7;
 7//1,2,3,16;
 1/7=10,18=20,19=15/3(2);
 2/9=110/2;
 99//99;
 2/9=110/2;
 3/5=4,6=6,7=1512,11=9,25=1,30=1,71=1/1,2,3;
 4/5=5,16=3,69=1/1;
 5/5=2,38=5,98=1/2;
 7//1,2,3,16;
 1/7=10,18=20,19=15/3(-5);
 2/9=110/2;
 6/7=3,19=2,28=1,40=1,79=1/1,7;
 99/9=1/99;
 Leave Link    1 at Fri Sep  6 16:33:16 2024, MaxMem=   536870912 cpu:               0.1 elap:               0.0
 (Enter /Users/asuyarger/Applications/G16/g16/l101.exe)
 --------------------------------------------
 CH4 HF 6-311++g(2d,3p) Opt Freq - Full - NBO
 --------------------------------------------
 Symbolic Z-matrix:
 Charge =  0 Multiplicity = 1
 C                    -0.08137   0.28029   0. 
 H                     0.27528  -0.72852   0. 
 H                     0.2753    0.78469   0.87365 
 H                     0.2753    0.78469  -0.87365 
 H                    -1.15137   0.2803    0. 
 
 ITRead=  0  0  0  0  0
 MicOpt= -1 -1 -1 -1 -1
 NAtoms=      5 NQM=        5 NQMF=       0 NMMI=      0 NMMIF=      0
                NMic=       0 NMicF=      0.
                    Isotopes and Nuclear Properties:
 (Nuclear quadrupole moments (NQMom) in fm**2, nuclear magnetic moments (NMagM)
  in nuclear magnetons)

  Atom         1           2           3           4           5
 IAtWgt=          12           1           1           1           1
 AtmWgt=  12.0000000   1.0078250   1.0078250   1.0078250   1.0078250
 NucSpn=           0           1           1           1           1
 AtZEff=  -0.0000000  -0.0000000  -0.0000000  -0.0000000  -0.0000000
 NQMom=    0.0000000   0.0000000   0.0000000   0.0000000   0.0000000
 NMagM=    0.0000000   2.7928460   2.7928460   2.7928460   2.7928460
 AtZNuc=   6.0000000   1.0000000   1.0000000   1.0000000   1.0000000
 Leave Link  101 at Fri Sep  6 16:33:16 2024, MaxMem=   536870912 cpu:               0.5 elap:               0.1
 (Enter /Users/asuyarger/Applications/G16/g16/l103.exe)

 GradGradGradGradGradGradGradGradGradGradGradGradGradGradGradGradGradGrad
 Berny optimization.
 Initialization pass.
                           ----------------------------
                           !    Initial Parameters    !
                           ! (Angstroms and Degrees)  !
 --------------------------                            --------------------------
 ! Name  Definition              Value          Derivative Info.                !
 --------------------------------------------------------------------------------
 ! R1    R(1,2)                  1.07           estimate D2E/DX2                !
 ! R2    R(1,3)                  1.07           estimate D2E/DX2                !
 ! R3    R(1,4)                  1.07           estimate D2E/DX2                !
 ! R4    R(1,5)                  1.07           estimate D2E/DX2                !
 ! A1    A(2,1,3)              109.4712         estimate D2E/DX2                !
 ! A2    A(2,1,4)              109.4712         estimate D2E/DX2                !
 ! A3    A(2,1,5)              109.4712         estimate D2E/DX2                !
 ! A4    A(3,1,4)              109.4712         estimate D2E/DX2                !
 ! A5    A(3,1,5)              109.4712         estimate D2E/DX2                !
 ! A6    A(4,1,5)              109.4712         estimate D2E/DX2                !
 ! D1    D(2,1,4,3)           -120.0            estimate D2E/DX2                !
 ! D2    D(2,1,5,3)            120.0            estimate D2E/DX2                !
 ! D3    D(2,1,5,4)           -120.0            estimate D2E/DX2                !
 ! D4    D(3,1,5,4)            120.0            estimate D2E/DX2                !
 --------------------------------------------------------------------------------
 Trust Radius=3.00D-01 FncErr=1.00D-07 GrdErr=1.00D-07 EigMax=2.50D+02 EigMin=1.00D-04
 Number of steps in this run=     24 maximum allowed number of steps=    100.
 GradGradGradGradGradGradGradGradGradGradGradGradGradGradGradGradGradGrad

 Leave Link  103 at Fri Sep  6 16:33:17 2024, MaxMem=   536870912 cpu:               0.0 elap:               0.0
 (Enter /Users/asuyarger/Applications/G16/g16/l202.exe)
                          Input orientation:                          
 ---------------------------------------------------------------------
 Center     Atomic      Atomic             Coordinates (Angstroms)
 Number     Number       Type             X           Y           Z
 ---------------------------------------------------------------------
      1          6           0       -0.081374    0.280289    0.000000
      2          1           0        0.275280   -0.728521    0.000000
      3          1           0        0.275299    0.784688    0.873651
      4          1           0        0.275299    0.784688   -0.873651
      5          1           0       -1.151374    0.280302    0.000000
 ---------------------------------------------------------------------
                    Distance matrix (angstroms):
                    1          2          3          4          5
     1  C    0.000000
     2  H    1.070000   0.000000
     3  H    1.070000   1.747303   0.000000
     4  H    1.070000   1.747303   1.747303   0.000000
     5  H    1.070000   1.747303   1.747303   1.747303   0.000000
 Stoichiometry    CH4
 Framework group  TD[O(C),4C3(H)]
 Deg. of freedom     1
 Full point group                 TD      NOp  24
 Largest Abelian subgroup         D2      NOp   4
 Largest concise Abelian subgroup D2      NOp   4
                         Standard orientation:                         
 ---------------------------------------------------------------------
 Center     Atomic      Atomic             Coordinates (Angstroms)
 Number     Number       Type             X           Y           Z
 ---------------------------------------------------------------------
      1          6           0        0.000000    0.000000    0.000000
      2          1           0        0.617765    0.617765    0.617765
      3          1           0       -0.617765   -0.617765    0.617765
      4          1           0       -0.617765    0.617765   -0.617765
      5          1           0        0.617765   -0.617765   -0.617765
 ---------------------------------------------------------------------
 Rotational constants (GHZ):         164.2463651         164.2463651         164.2463651
 Leave Link  202 at Fri Sep  6 16:33:17 2024, MaxMem=   536870912 cpu:               0.0 elap:               0.0
 (Enter /Users/asuyarger/Applications/G16/g16/l301.exe)
 Standard basis: 6-311++G(2d,3p) (5D, 7F)
 Ernie: Thresh=  0.10000D-02 Tol=  0.10000D-05 Strict=F.
 There are    24 symmetry adapted cartesian basis functions of A   symmetry.
 There are    19 symmetry adapted cartesian basis functions of B1  symmetry.
 There are    19 symmetry adapted cartesian basis functions of B2  symmetry.
 There are    19 symmetry adapted cartesian basis functions of B3  symmetry.
 There are    22 symmetry adapted basis functions of A   symmetry.
 There are    19 symmetry adapted basis functions of B1  symmetry.
 There are    19 symmetry adapted basis functions of B2  symmetry.
 There are    19 symmetry adapted basis functions of B3  symmetry.
    79 basis functions,   102 primitive gaussians,    81 cartesian basis functions
     5 alpha electrons        5 beta electrons
       nuclear repulsion energy        13.6865179973 Hartrees.
 IExCor=    0 DFT=F Ex=HF Corr=None ExCW=0 ScaHFX=  1.000000
 ScaDFX=  1.000000  1.000000  1.000000  1.000000 ScalE2=  1.000000  1.000000
 IRadAn=      5 IRanWt=     -1 IRanGd=            0 ICorTp=0 IEmpDi=  4
 NAtoms=    5 NActive=    5 NUniq=    2 SFac= 4.00D+00 NAtFMM=   60 NAOKFM=F Big=F
 Integral buffers will be    131072 words long.
 Raffenetti 1 integral format.
 Two-electron integral symmetry is turned on.
 Leave Link  301 at Fri Sep  6 16:33:17 2024, MaxMem=   536870912 cpu:               0.1 elap:               0.0
 (Enter /Users/asuyarger/Applications/G16/g16/l302.exe)
 NPDir=0 NMtPBC=     1 NCelOv=     1 NCel=       1 NClECP=     1 NCelD=      1
         NCelK=      1 NCelE2=     1 NClLst=     1 CellRange=     0.0.
 One-electron integrals computed using PRISM.
 One-electron integral symmetry used in STVInt
 NBasis=    79 RedAO= T EigKep=  2.67D-04  NBF=    22    19    19    19
 NBsUse=    79 1.00D-06 EigRej= -1.00D+00 NBFU=    22    19    19    19
 Leave Link  302 at Fri Sep  6 16:33:17 2024, MaxMem=   536870912 cpu:               0.3 elap:               0.1
 (Enter /Users/asuyarger/Applications/G16/g16/l303.exe)
 DipDrv:  MaxL=1.
 Leave Link  303 at Fri Sep  6 16:33:17 2024, MaxMem=   536870912 cpu:               0.1 elap:               0.0
 (Enter /Users/asuyarger/Applications/G16/g16/l401.exe)
 ExpMin= 3.60D-02 ExpMax= 4.56D+03 ExpMxC= 6.82D+02 IAcc=3 IRadAn=         5 AccDes= 0.00D+00
 Harris functional with IExCor=  205 and IRadAn=       5 diagonalized for initial guess.
 HarFok:  IExCor=  205 AccDes= 0.00D+00 IRadAn=         5 IDoV= 1 UseB2=F ITyADJ=14
 ICtDFT=  3500011 ScaDFX=  1.000000  1.000000  1.000000  1.000000
 FoFCou: FMM=F IPFlag=           0 FMFlag=      100000 FMFlg1=           0
         NFxFlg=           0 DoJE=T BraDBF=F KetDBF=T FulRan=T
         wScrn=  0.000000 ICntrl=       500 IOpCl=  0 I1Cent=   200000004 NGrid=           0
         NMat0=    1 NMatS0=      1 NMatT0=    0 NMatD0=    1 NMtDS0=    0 NMtDT0=    0
 Petite list used in FoFCou.
 Harris En= -40.4006870777540    
 JPrj=0 DoOrth=F DoCkMO=F.
 Initial guess orbital symmetries:
       Occupied  (A1) (A1) (T2) (T2) (T2)
       Virtual   (A1) (T2) (T2) (T2) (T2) (T2) (T2) (A1) (T2) (T2)
                 (T2) (E) (E) (A1) (T2) (T2) (T2) (T1) (T1) (T1)
                 (T2) (T2) (T2) (A1) (T2) (T2) (T2) (A1) (T2) (T2)
                 (T2) (E) (E) (A1) (T2) (T2) (T2) (T1) (T1) (T1)
                 (T2) (T2) (T2) (T2) (T2) (T2) (E) (E) (A1) (T2)
                 (T2) (T2) (A1) (T2) (T2) (T2) (E) (E) (T2) (T2)
                 (T2) (T1) (T1) (T1) (T2) (T2) (T2) (E) (E) (A1)
                 (T2) (T2) (T2) (A1)
 The electronic state of the initial guess is 1-A1.
 Leave Link  401 at Fri Sep  6 16:33:17 2024, MaxMem=   536870912 cpu:               0.4 elap:               0.1
 (Enter /Users/asuyarger/Applications/G16/g16/l502.exe)
 Keep R1 ints in memory in symmetry-blocked form, NReq=6254607.
 FoFCou: FMM=F IPFlag=           0 FMFlag=           0 FMFlg1=           0
         NFxFlg=           0 DoJE=F BraDBF=F KetDBF=F FulRan=T
         wScrn=  0.000000 ICntrl=       600 IOpCl=  0 I1Cent=           0 NGrid=           0
         NMat0=    1 NMatS0=   3160 NMatT0=    0 NMatD0=    1 NMtDS0=    0 NMtDT0=    0
 Petite list used in FoFCou.
 Closed shell SCF:
 Using DIIS extrapolation, IDIIS=  1040.
 NGot=   536870912 LenX=   535596737 LenY=   535589735
 Requested convergence on RMS density matrix=1.00D-08 within 128 cycles.
 Requested convergence on MAX density matrix=1.00D-06.
 Requested convergence on             energy=1.00D-06.
 No special actions if energy rises.

 Cycle   1  Pass 1  IDiag  1:
 E= -40.0673826006938    
 DIIS: error= 5.19D-02 at cycle   1 NSaved=   1.
 NSaved= 1 IEnMin= 1 EnMin= -40.0673826006938     IErMin= 1 ErrMin= 5.19D-02
 ErrMax= 5.19D-02  0.00D+00 EMaxC= 1.00D-01 BMatC= 1.84D-01 BMatP= 1.84D-01
 IDIUse=3 WtCom= 4.81D-01 WtEn= 5.19D-01
 Coeff-Com:  0.100D+01
 Coeff-En:   0.100D+01
 Coeff:      0.100D+01
 Gap=     0.516 Goal=   None    Shift=    0.000
 GapD=    0.516 DampG=2.000 DampE=0.500 DampFc=1.0000 IDamp=-1.
 RMSDP=3.35D-03 MaxDP=1.31D-01              OVMax= 1.53D-01

 Cycle   2  Pass 1  IDiag  1:
 E= -40.1888040251278     Delta-E=       -0.121421424434 Rises=F Damp=F
 DIIS: error= 2.67D-02 at cycle   2 NSaved=   2.
 NSaved= 2 IEnMin= 2 EnMin= -40.1888040251278     IErMin= 2 ErrMin= 2.67D-02
 ErrMax= 2.67D-02  0.00D+00 EMaxC= 1.00D-01 BMatC= 2.50D-02 BMatP= 1.84D-01
 IDIUse=3 WtCom= 7.33D-01 WtEn= 2.67D-01
 Coeff-Com:  0.238D+00 0.762D+00
 Coeff-En:   0.000D+00 0.100D+01
 Coeff:      0.175D+00 0.825D+00
 Gap=     0.608 Goal=   None    Shift=    0.000
 RMSDP=1.33D-03 MaxDP=5.02D-02 DE=-1.21D-01 OVMax= 4.94D-02

 Cycle   3  Pass 1  IDiag  1:
 E= -40.2108246275094     Delta-E=       -0.022020602382 Rises=F Damp=F
 DIIS: error= 3.07D-03 at cycle   3 NSaved=   3.
 NSaved= 3 IEnMin= 3 EnMin= -40.2108246275094     IErMin= 3 ErrMin= 3.07D-03
 ErrMax= 3.07D-03  0.00D+00 EMaxC= 1.00D-01 BMatC= 6.30D-04 BMatP= 2.50D-02
 IDIUse=3 WtCom= 9.69D-01 WtEn= 3.07D-02
 Coeff-Com: -0.253D-01 0.851D-01 0.940D+00
 Coeff-En:   0.000D+00 0.000D+00 0.100D+01
 Coeff:     -0.245D-01 0.825D-01 0.942D+00
 Gap=     0.591 Goal=   None    Shift=    0.000
 RMSDP=1.83D-04 MaxDP=4.80D-03 DE=-2.20D-02 OVMax= 8.09D-03

 Cycle   4  Pass 1  IDiag  1:
 E= -40.2114855295273     Delta-E=       -0.000660902018 Rises=F Damp=F
 DIIS: error= 5.39D-04 at cycle   4 NSaved=   4.
 NSaved= 4 IEnMin= 4 EnMin= -40.2114855295273     IErMin= 4 ErrMin= 5.39D-04
 ErrMax= 5.39D-04  0.00D+00 EMaxC= 1.00D-01 BMatC= 5.90D-06 BMatP= 6.30D-04
 IDIUse=3 WtCom= 9.95D-01 WtEn= 5.39D-03
 Coeff-Com:  0.624D-02-0.388D-01-0.311D+00 0.134D+01
 Coeff-En:   0.000D+00 0.000D+00 0.000D+00 0.100D+01
 Coeff:      0.621D-02-0.386D-01-0.310D+00 0.134D+01
 Gap=     0.591 Goal=   None    Shift=    0.000
 RMSDP=5.23D-05 MaxDP=9.26D-04 DE=-6.61D-04 OVMax= 1.69D-03

 Cycle   5  Pass 1  IDiag  1:
 E= -40.2115004904430     Delta-E=       -0.000014960916 Rises=F Damp=F
 DIIS: error= 6.37D-05 at cycle   5 NSaved=   5.
 NSaved= 5 IEnMin= 5 EnMin= -40.2115004904430     IErMin= 5 ErrMin= 6.37D-05
 ErrMax= 6.37D-05  0.00D+00 EMaxC= 1.00D-01 BMatC= 1.05D-07 BMatP= 5.90D-06
 IDIUse=1 WtCom= 1.00D+00 WtEn= 0.00D+00
 Coeff-Com: -0.472D-03 0.433D-02 0.366D-01-0.263D+00 0.122D+01
 Coeff:     -0.472D-03 0.433D-02 0.366D-01-0.263D+00 0.122D+01
 Gap=     0.591 Goal=   None    Shift=    0.000
 RMSDP=8.34D-06 MaxDP=1.38D-04 DE=-1.50D-05 OVMax= 2.44D-04

 Cycle   6  Pass 1  IDiag  1:
 E= -40.2115007514877     Delta-E=       -0.000000261045 Rises=F Damp=F
 DIIS: error= 2.62D-06 at cycle   6 NSaved=   6.
 NSaved= 6 IEnMin= 6 EnMin= -40.2115007514877     IErMin= 6 ErrMin= 2.62D-06
 ErrMax= 2.62D-06  0.00D+00 EMaxC= 1.00D-01 BMatC= 3.91D-10 BMatP= 1.05D-07
 IDIUse=1 WtCom= 1.00D+00 WtEn= 0.00D+00
 Coeff-Com:  0.704D-04-0.702D-03-0.617D-02 0.494D-01-0.272D+00 0.123D+01
 Coeff:      0.704D-04-0.702D-03-0.617D-02 0.494D-01-0.272D+00 0.123D+01
 Gap=     0.591 Goal=   None    Shift=    0.000
 RMSDP=9.69D-07 MaxDP=1.43D-05 DE=-2.61D-07 OVMax= 1.47D-05

 Cycle   7  Pass 1  IDiag  1:
 E= -40.2115007524598     Delta-E=       -0.000000000972 Rises=F Damp=F
 DIIS: error= 2.63D-07 at cycle   7 NSaved=   7.
 NSaved= 7 IEnMin= 7 EnMin= -40.2115007524598     IErMin= 7 ErrMin= 2.63D-07
 ErrMax= 2.63D-07  0.00D+00 EMaxC= 1.00D-01 BMatC= 1.69D-12 BMatP= 3.91D-10
 IDIUse=1 WtCom= 1.00D+00 WtEn= 0.00D+00
 Coeff-Com: -0.591D-05 0.598D-04 0.572D-03-0.485D-02 0.281D-01-0.162D+00
 Coeff-Com:  0.114D+01
 Coeff:     -0.591D-05 0.598D-04 0.572D-03-0.485D-02 0.281D-01-0.162D+00
 Coeff:      0.114D+01
 Gap=     0.591 Goal=   None    Shift=    0.000
 RMSDP=8.24D-08 MaxDP=9.06D-07 DE=-9.72D-10 OVMax= 7.75D-07

 Cycle   8  Pass 1  IDiag  1:
 E= -40.2115007524630     Delta-E=       -0.000000000003 Rises=F Damp=F
 DIIS: error= 9.04D-09 at cycle   8 NSaved=   8.
 NSaved= 8 IEnMin= 8 EnMin= -40.2115007524630     IErMin= 8 ErrMin= 9.04D-09
 ErrMax= 9.04D-09  0.00D+00 EMaxC= 1.00D-01 BMatC= 5.85D-15 BMatP= 1.69D-12
 IDIUse=1 WtCom= 1.00D+00 WtEn= 0.00D+00
 Coeff-Com:  0.278D-06-0.268D-05-0.298D-04 0.270D-03-0.162D-02 0.110D-01
 Coeff-Com: -0.123D+00 0.111D+01
 Coeff:      0.278D-06-0.268D-05-0.298D-04 0.270D-03-0.162D-02 0.110D-01
 Coeff:     -0.123D+00 0.111D+01
 Gap=     0.591 Goal=   None    Shift=    0.000
 RMSDP=8.15D-09 MaxDP=9.56D-08 DE=-3.17D-12 OVMax= 5.55D-08

 SCF Done:  E(RHF) =  -40.2115007525     A.U. after    8 cycles
            NFock=  8  Conv=0.81D-08     -V/T= 1.9983
 KE= 4.027879104626D+01 PE=-1.204815989861D+02 EE= 2.630478919014D+01
 Leave Link  502 at Fri Sep  6 16:33:17 2024, MaxMem=   536870912 cpu:               0.6 elap:               0.2
 (Enter /Users/asuyarger/Applications/G16/g16/l601.exe)
 Copying SCF densities to generalized density rwf, IOpCl= 0 IROHF=0.

 **********************************************************************

            Population analysis using the SCF density.

 **********************************************************************

 Orbital symmetries:
       Occupied  (A1) (A1) (T2) (T2) (T2)
       Virtual   (A1) (T2) (T2) (T2) (T2) (T2) (T2) (A1) (T2) (T2)
                 (T2) (A1) (E) (E) (T2) (T2) (T2) (T1) (T1) (T1)
                 (A1) (T2) (T2) (T2) (T2) (T2) (T2) (T2) (T2) (T2)
                 (A1) (E) (E) (A1) (T2) (T2) (T2) (T1) (T1) (T1)
                 (T2) (T2) (T2) (E) (E) (T2) (T2) (T2) (A1) (T2)
                 (T2) (T2) (A1) (T2) (T2) (T2) (E) (E) (T2) (T2)
                 (T2) (T1) (T1) (T1) (T2) (T2) (T2) (E) (E) (A1)
                 (T2) (T2) (T2) (A1)
 The electronic state is 1-A1.
 Alpha  occ. eigenvalues --  -11.19618  -0.95071  -0.54991  -0.54991  -0.54991
 Alpha virt. eigenvalues --    0.04121   0.07529   0.07529   0.07529   0.15026
 Alpha virt. eigenvalues --    0.15026   0.15026   0.17735   0.29028   0.29028
 Alpha virt. eigenvalues --    0.29028   0.36591   0.40602   0.40602   0.47242
 Alpha virt. eigenvalues --    0.47242   0.47242   0.64859   0.64859   0.64859
 Alpha virt. eigenvalues --    0.67546   0.69069   0.69069   0.69069   0.92610
 Alpha virt. eigenvalues --    0.92610   0.92610   0.97402   0.97402   0.97402
 Alpha virt. eigenvalues --    1.03841   1.15734   1.15734   1.23631   1.49280
 Alpha virt. eigenvalues --    1.49280   1.49280   2.05199   2.05199   2.05199
 Alpha virt. eigenvalues --    2.17932   2.17932   2.17932   2.58702   2.58702
 Alpha virt. eigenvalues --    2.66540   2.66540   2.66540   2.97852   3.16627
 Alpha virt. eigenvalues --    3.16627   3.16627   3.53655   3.79211   3.79211
 Alpha virt. eigenvalues --    3.79211   3.87674   3.87674   4.59619   4.59619
 Alpha virt. eigenvalues --    4.59619   8.74147   8.74147   8.74147   8.78636
 Alpha virt. eigenvalues --    8.78636   8.78636   8.86102   8.86102   8.89745
 Alpha virt. eigenvalues --    9.12545   9.12545   9.12545  25.30603
     Molecular Orbital Coefficients:
                           1         2         3         4         5
                        (A1)--O   (A1)--O   (T2)--O   (T2)--O   (T2)--O
     Eigenvalues --   -11.19618  -0.95071  -0.54991  -0.54991  -0.54991
   1 1   C  1S          0.56325  -0.10324   0.00000   0.00000   0.00000
   2        2S          0.46648  -0.17047   0.00000   0.00000   0.00000
   3        2PX         0.00000   0.00000   0.00000   0.00000   0.19278
   4        2PY         0.00000   0.00000   0.00000   0.19278   0.00000
   5        2PZ         0.00000   0.00000   0.19278   0.00000   0.00000
   6        3S          0.00510   0.42566   0.00000   0.00000   0.00000
   7        3PX         0.00000   0.00000   0.00000   0.00000   0.29153
   8        3PY         0.00000   0.00000   0.00000   0.29153   0.00000
   9        3PZ         0.00000   0.00000   0.29153   0.00000   0.00000
  10        4S         -0.00250   0.14089   0.00000   0.00000   0.00000
  11        4PX         0.00000   0.00000   0.00000   0.00000   0.17351
  12        4PY         0.00000   0.00000   0.00000   0.17351   0.00000
  13        4PZ         0.00000   0.00000   0.17351   0.00000   0.00000
  14        5S         -0.00224  -0.03887   0.00000   0.00000   0.00000
  15        5PX         0.00000   0.00000   0.00000   0.00000  -0.01309
  16        5PY         0.00000   0.00000   0.00000  -0.01309   0.00000
  17        5PZ         0.00000   0.00000  -0.01309   0.00000   0.00000
  18        6D 0       -0.00000  -0.00000   0.00000   0.00000   0.00000
  19        6D+1        0.00000   0.00000   0.00000   0.01900   0.00000
  20        6D-1        0.00000   0.00000   0.00000   0.00000   0.01900
  21        6D+2       -0.00000  -0.00000   0.00000   0.00000   0.00000
  22        6D-2        0.00000   0.00000   0.01900   0.00000   0.00000
  23        7D 0        0.00000  -0.00000   0.00000   0.00000   0.00000
  24        7D+1        0.00000   0.00000   0.00000   0.01648   0.00000
  25        7D-1        0.00000   0.00000   0.00000   0.00000   0.01648
  26        7D+2        0.00000   0.00000   0.00000   0.00000   0.00000
  27        7D-2        0.00000   0.00000   0.01648   0.00000   0.00000
  28 2   H  1S          0.00042   0.08434   0.10247   0.10247   0.10247
  29        2S         -0.00015   0.12206   0.16141   0.16141   0.16141
  30        3S          0.00101   0.03301   0.08388   0.08388   0.08388
  31        4S          0.00025   0.00620   0.01589   0.01589   0.01589
  32        5PX        -0.00007  -0.00163  -0.00217  -0.00217  -0.00070
  33        5PY        -0.00007  -0.00163  -0.00217  -0.00070  -0.00217
  34        5PZ        -0.00007  -0.00163  -0.00070  -0.00217  -0.00217
  35        6PX         0.00010  -0.00885  -0.00879  -0.00879   0.00001
  36        6PY         0.00010  -0.00885  -0.00879   0.00001  -0.00879
  37        6PZ         0.00010  -0.00885   0.00001  -0.00879  -0.00879
  38        7PX        -0.00008  -0.00840  -0.00800  -0.00800  -0.00473
  39        7PY        -0.00008  -0.00840  -0.00800  -0.00473  -0.00800
  40        7PZ        -0.00008  -0.00840  -0.00473  -0.00800  -0.00800
  41 3   H  1S          0.00042   0.08434   0.10247  -0.10247  -0.10247
  42        2S         -0.00015   0.12206   0.16141  -0.16141  -0.16141
  43        3S          0.00101   0.03301   0.08388  -0.08388  -0.08388
  44        4S          0.00025   0.00620   0.01589  -0.01589  -0.01589
  45        5PX         0.00007   0.00163   0.00217  -0.00217  -0.00070
  46        5PY         0.00007   0.00163   0.00217  -0.00070  -0.00217
  47        5PZ        -0.00007  -0.00163  -0.00070   0.00217   0.00217
  48        6PX        -0.00010   0.00885   0.00879  -0.00879   0.00001
  49        6PY        -0.00010   0.00885   0.00879   0.00001  -0.00879
  50        6PZ         0.00010  -0.00885   0.00001   0.00879   0.00879
  51        7PX         0.00008   0.00840   0.00800  -0.00800  -0.00473
  52        7PY         0.00008   0.00840   0.00800  -0.00473  -0.00800
  53        7PZ        -0.00008  -0.00840  -0.00473   0.00800   0.00800
  54 4   H  1S          0.00042   0.08434  -0.10247   0.10247  -0.10247
  55        2S         -0.00015   0.12206  -0.16141   0.16141  -0.16141
  56        3S          0.00101   0.03301  -0.08388   0.08388  -0.08388
  57        4S          0.00025   0.00620  -0.01589   0.01589  -0.01589
  58        5PX         0.00007   0.00163  -0.00217   0.00217  -0.00070
  59        5PY        -0.00007  -0.00163   0.00217  -0.00070   0.00217
  60        5PZ         0.00007   0.00163  -0.00070   0.00217  -0.00217
  61        6PX        -0.00010   0.00885  -0.00879   0.00879   0.00001
  62        6PY         0.00010  -0.00885   0.00879   0.00001   0.00879
  63        6PZ        -0.00010   0.00885   0.00001   0.00879  -0.00879
  64        7PX         0.00008   0.00840  -0.00800   0.00800  -0.00473
  65        7PY        -0.00008  -0.00840   0.00800  -0.00473   0.00800
  66        7PZ         0.00008   0.00840  -0.00473   0.00800  -0.00800
  67 5   H  1S          0.00042   0.08434  -0.10247  -0.10247   0.10247
  68        2S         -0.00015   0.12206  -0.16141  -0.16141   0.16141
  69        3S          0.00101   0.03301  -0.08388  -0.08388   0.08388
  70        4S          0.00025   0.00620  -0.01589  -0.01589   0.01589
  71        5PX        -0.00007  -0.00163   0.00217   0.00217  -0.00070
  72        5PY         0.00007   0.00163  -0.00217  -0.00070   0.00217
  73        5PZ         0.00007   0.00163  -0.00070  -0.00217   0.00217
  74        6PX         0.00010  -0.00885   0.00879   0.00879   0.00001
  75        6PY        -0.00010   0.00885  -0.00879   0.00001   0.00879
  76        6PZ        -0.00010   0.00885   0.00001  -0.00879   0.00879
  77        7PX        -0.00008  -0.00840   0.00800   0.00800  -0.00473
  78        7PY         0.00008   0.00840  -0.00800  -0.00473   0.00800
  79        7PZ         0.00008   0.00840  -0.00473  -0.00800   0.00800
                           6         7         8         9        10
                        (A1)--V   (T2)--V   (T2)--V   (T2)--V   (T2)--V
     Eigenvalues --     0.04121   0.07529   0.07529   0.07529   0.15026
   1 1   C  1S         -0.01803   0.00000   0.00000   0.00000   0.00000
   2        2S         -0.03047   0.00000   0.00000   0.00000   0.00000
   3        2PX         0.00000   0.00000   0.00000  -0.03763   0.00000
   4        2PY         0.00000   0.00000  -0.03763   0.00000   0.00000
   5        2PZ         0.00000  -0.03763   0.00000   0.00000  -0.01123
   6        3S          0.07444   0.00000   0.00000   0.00000   0.00000
   7        3PX         0.00000   0.00000   0.00000  -0.03079   0.00000
   8        3PY         0.00000   0.00000  -0.03079   0.00000   0.00000
   9        3PZ         0.00000  -0.03079   0.00000   0.00000  -0.01011
  10        4S          1.32790   0.00000   0.00000   0.00000   0.00000
  11        4PX         0.00000   0.00000   0.00000   0.88584   0.00000
  12        4PY         0.00000   0.00000   0.88584   0.00000   0.00000
  13        4PZ         0.00000   0.88584   0.00000   0.00000   0.59077
  14        5S          7.58015   0.00000   0.00000   0.00000   0.00000
  15        5PX         0.00000   0.00000   0.00000  -1.22421   0.00000
  16        5PY         0.00000   0.00000  -1.22421   0.00000   0.00000
  17        5PZ         0.00000  -1.22421   0.00000   0.00000   3.91073
  18        6D 0       -0.00000   0.00000   0.00000   0.00000   0.00000
  19        6D+1        0.00000   0.00000  -0.00523   0.00000   0.00000
  20        6D-1        0.00000   0.00000   0.00000  -0.00523   0.00000
  21        6D+2       -0.00000   0.00000   0.00000   0.00000   0.00000
  22        6D-2        0.00000  -0.00523   0.00000   0.00000  -0.01048
  23        7D 0        0.00000   0.00000   0.00000   0.00000   0.00000
  24        7D+1        0.00000   0.00000   0.09662   0.00000   0.00000
  25        7D-1        0.00000   0.00000   0.00000   0.09662   0.00000
  26        7D+2       -0.00000   0.00000   0.00000   0.00000   0.00000
  27        7D-2        0.00000   0.09662   0.00000   0.00000  -0.02767
  28 2   H  1S          0.00393  -0.00751  -0.00751  -0.00751  -0.02288
  29        2S         -0.02297  -0.14684  -0.14684  -0.14684  -0.01863
  30        3S         -0.83467  -0.90120  -0.90120  -0.90120  -1.14587
  31        4S         -1.77455   2.88357   2.88357   2.88357  -3.11100
  32        5PX        -0.00003   0.00040   0.00040   0.00001   0.00140
  33        5PY        -0.00003   0.00040   0.00001   0.00040   0.00140
  34        5PZ        -0.00003   0.00001   0.00040   0.00040  -0.00047
  35        6PX        -0.00510   0.00445   0.00445   0.00660  -0.01189
  36        6PY        -0.00510   0.00445   0.00660   0.00445  -0.01189
  37        6PZ        -0.00510   0.00660   0.00445   0.00445   0.01010
  38        7PX         0.06380   0.13311   0.13311   0.07146   0.12010
  39        7PY         0.06380   0.13311   0.07146   0.13311   0.12010
  40        7PZ         0.06380   0.07146   0.13311   0.13311  -0.02168
  41 3   H  1S          0.00393  -0.00751   0.00751   0.00751  -0.02288
  42        2S         -0.02297  -0.14684   0.14684   0.14684  -0.01863
  43        3S         -0.83467  -0.90120   0.90120   0.90120  -1.14587
  44        4S         -1.77455   2.88357  -2.88357  -2.88357  -3.11100
  45        5PX         0.00003  -0.00040   0.00040   0.00001  -0.00140
  46        5PY         0.00003  -0.00040   0.00001   0.00040  -0.00140
  47        5PZ        -0.00003   0.00001  -0.00040  -0.00040  -0.00047
  48        6PX         0.00510  -0.00445   0.00445   0.00660   0.01189
  49        6PY         0.00510  -0.00445   0.00660   0.00445   0.01189
  50        6PZ        -0.00510   0.00660  -0.00445  -0.00445   0.01010
  51        7PX        -0.06380  -0.13311   0.13311   0.07146  -0.12010
  52        7PY        -0.06380  -0.13311   0.07146   0.13311  -0.12010
  53        7PZ         0.06380   0.07146  -0.13311  -0.13311  -0.02168
  54 4   H  1S          0.00393   0.00751  -0.00751   0.00751   0.02288
  55        2S         -0.02297   0.14684  -0.14684   0.14684   0.01863
  56        3S         -0.83467   0.90120  -0.90120   0.90120   1.14587
  57        4S         -1.77455  -2.88357   2.88357  -2.88357   3.11100
  58        5PX         0.00003   0.00040  -0.00040   0.00001   0.00140
  59        5PY        -0.00003  -0.00040   0.00001  -0.00040  -0.00140
  60        5PZ         0.00003   0.00001  -0.00040   0.00040  -0.00047
  61        6PX         0.00510   0.00445  -0.00445   0.00660  -0.01189
  62        6PY        -0.00510  -0.00445   0.00660  -0.00445   0.01189
  63        6PZ         0.00510   0.00660  -0.00445   0.00445   0.01010
  64        7PX        -0.06380   0.13311  -0.13311   0.07146   0.12010
  65        7PY         0.06380  -0.13311   0.07146  -0.13311  -0.12010
  66        7PZ        -0.06380   0.07146  -0.13311   0.13311  -0.02168
  67 5   H  1S          0.00393   0.00751   0.00751  -0.00751   0.02288
  68        2S         -0.02297   0.14684   0.14684  -0.14684   0.01863
  69        3S         -0.83467   0.90120   0.90120  -0.90120   1.14587
  70        4S         -1.77455  -2.88357  -2.88357   2.88357   3.11100
  71        5PX        -0.00003  -0.00040  -0.00040   0.00001  -0.00140
  72        5PY         0.00003   0.00040   0.00001  -0.00040   0.00140
  73        5PZ         0.00003   0.00001   0.00040  -0.00040  -0.00047
  74        6PX        -0.00510  -0.00445  -0.00445   0.00660   0.01189
  75        6PY         0.00510   0.00445   0.00660  -0.00445  -0.01189
  76        6PZ         0.00510   0.00660   0.00445  -0.00445   0.01010
  77        7PX         0.06380  -0.13311  -0.13311   0.07146  -0.12010
  78        7PY        -0.06380   0.13311   0.07146  -0.13311   0.12010
  79        7PZ        -0.06380   0.07146   0.13311  -0.13311  -0.02168
                          11        12        13        14        15
                        (T2)--V   (T2)--V   (A1)--V   (T2)--V   (T2)--V
     Eigenvalues --     0.15026   0.15026   0.17735   0.29028   0.29028
   1 1   C  1S          0.00000   0.00000   0.03384   0.00000   0.00000
   2        2S          0.00000   0.00000   0.06191   0.00000   0.00000
   3        2PX         0.00000  -0.01123   0.00000   0.00000   0.00000
   4        2PY        -0.01123   0.00000   0.00000   0.11452   0.00000
   5        2PZ         0.00000   0.00000   0.00000   0.00000   0.11452
   6        3S          0.00000   0.00000  -0.25954   0.00000   0.00000
   7        3PX         0.00000  -0.01011   0.00000   0.00000   0.00000
   8        3PY        -0.01011   0.00000   0.00000   0.26325   0.00000
   9        3PZ         0.00000   0.00000   0.00000   0.00000   0.26325
  10        4S          0.00000   0.00000   4.88254   0.00000   0.00000
  11        4PX         0.00000   0.59077   0.00000   0.00000   0.00000
  12        4PY         0.59077   0.00000   0.00000   3.67497   0.00000
  13        4PZ         0.00000   0.00000   0.00000   0.00000   3.67497
  14        5S          0.00000   0.00000  19.38881   0.00000   0.00000
  15        5PX         0.00000   3.91073   0.00000   0.00000   0.00000
  16        5PY         3.91073   0.00000   0.00000  -1.06350   0.00000
  17        5PZ         0.00000   0.00000   0.00000   0.00000  -1.06350
  18        6D 0        0.00000   0.00000  -0.00000   0.00000   0.00000
  19        6D+1       -0.01048   0.00000   0.00000  -0.01516   0.00000
  20        6D-1        0.00000  -0.01048   0.00000   0.00000   0.00000
  21        6D+2        0.00000   0.00000  -0.00000   0.00000   0.00000
  22        6D-2        0.00000   0.00000   0.00000   0.00000  -0.01516
  23        7D 0        0.00000   0.00000   0.00000   0.00000   0.00000
  24        7D+1       -0.02767   0.00000   0.00000   0.28885   0.00000
  25        7D-1        0.00000  -0.02767   0.00000   0.00000   0.00000
  26        7D+2        0.00000   0.00000  -0.00000   0.00000   0.00000
  27        7D-2        0.00000   0.00000   0.00000   0.00000   0.28885
  28 2   H  1S         -0.02288  -0.02288   0.00014   0.00407   0.00407
  29        2S         -0.01863  -0.01863  -0.14401  -0.44074  -0.44074
  30        3S         -1.14587  -1.14587  -3.24895  -3.27757  -3.27757
  31        4S         -3.11100  -3.11100  -3.25472   2.29953   2.29953
  32        5PX         0.00140  -0.00047   0.00159  -0.00211  -0.00211
  33        5PY        -0.00047   0.00140   0.00159  -0.00081  -0.00211
  34        5PZ         0.00140   0.00140   0.00159  -0.00211  -0.00081
  35        6PX        -0.01189   0.01010   0.00001   0.00058   0.00058
  36        6PY         0.01010  -0.01189   0.00001   0.01572   0.00058
  37        6PZ        -0.01189  -0.01189   0.00001   0.00058   0.01572
  38        7PX         0.12010  -0.02168   0.28247   0.40661   0.40661
  39        7PY        -0.02168   0.12010   0.28247   0.21606   0.40661
  40        7PZ         0.12010   0.12010   0.28247   0.40661   0.21606
  41 3   H  1S          0.02288   0.02288   0.00014  -0.00407   0.00407
  42        2S          0.01863   0.01863  -0.14401   0.44074  -0.44074
  43        3S          1.14587   1.14587  -3.24895   3.27757  -3.27757
  44        4S          3.11100   3.11100  -3.25472  -2.29953   2.29953
  45        5PX         0.00140  -0.00047  -0.00159  -0.00211   0.00211
  46        5PY        -0.00047   0.00140  -0.00159  -0.00081   0.00211
  47        5PZ        -0.00140  -0.00140   0.00159   0.00211  -0.00081
  48        6PX        -0.01189   0.01010  -0.00001   0.00058  -0.00058
  49        6PY         0.01010  -0.01189  -0.00001   0.01572  -0.00058
  50        6PZ         0.01189   0.01189   0.00001  -0.00058   0.01572
  51        7PX         0.12010  -0.02168  -0.28247   0.40661  -0.40661
  52        7PY        -0.02168   0.12010  -0.28247   0.21606  -0.40661
  53        7PZ        -0.12010  -0.12010   0.28247  -0.40661   0.21606
  54 4   H  1S         -0.02288   0.02288   0.00014   0.00407  -0.00407
  55        2S         -0.01863   0.01863  -0.14401  -0.44074   0.44074
  56        3S         -1.14587   1.14587  -3.24895  -3.27757   3.27757
  57        4S         -3.11100   3.11100  -3.25472   2.29953  -2.29953
  58        5PX        -0.00140  -0.00047  -0.00159   0.00211  -0.00211
  59        5PY        -0.00047  -0.00140   0.00159  -0.00081   0.00211
  60        5PZ        -0.00140   0.00140  -0.00159   0.00211  -0.00081
  61        6PX         0.01189   0.01010  -0.00001  -0.00058   0.00058
  62        6PY         0.01010   0.01189   0.00001   0.01572  -0.00058
  63        6PZ         0.01189  -0.01189  -0.00001  -0.00058   0.01572
  64        7PX        -0.12010  -0.02168  -0.28247  -0.40661   0.40661
  65        7PY        -0.02168  -0.12010   0.28247   0.21606  -0.40661
  66        7PZ        -0.12010   0.12010  -0.28247  -0.40661   0.21606
  67 5   H  1S          0.02288  -0.02288   0.00014  -0.00407  -0.00407
  68        2S          0.01863  -0.01863  -0.14401   0.44074   0.44074
  69        3S          1.14587  -1.14587  -3.24895   3.27757   3.27757
  70        4S          3.11100  -3.11100  -3.25472  -2.29953  -2.29953
  71        5PX        -0.00140  -0.00047   0.00159   0.00211   0.00211
  72        5PY        -0.00047  -0.00140  -0.00159  -0.00081  -0.00211
  73        5PZ         0.00140  -0.00140  -0.00159  -0.00211  -0.00081
  74        6PX         0.01189   0.01010   0.00001  -0.00058  -0.00058
  75        6PY         0.01010   0.01189  -0.00001   0.01572   0.00058
  76        6PZ        -0.01189   0.01189  -0.00001   0.00058   0.01572
  77        7PX        -0.12010  -0.02168   0.28247  -0.40661  -0.40661
  78        7PY        -0.02168  -0.12010  -0.28247   0.21606   0.40661
  79        7PZ         0.12010  -0.12010  -0.28247   0.40661   0.21606
                          16        17        18        19        20
                        (T2)--V   (A1)--V   (E)--V    (E)--V    (T2)--V
     Eigenvalues --     0.29028   0.36591   0.40602   0.40602   0.47242
   1 1   C  1S          0.00000  -0.04992  -0.00000  -0.00000   0.00000
   2        2S          0.00000  -0.07985  -0.00000  -0.00000   0.00000
   3        2PX         0.11452   0.00000   0.00000   0.00000   0.00000
   4        2PY         0.00000   0.00000   0.00000   0.00000   0.00000
   5        2PZ         0.00000   0.00000   0.00000   0.00000  -0.04218
   6        3S          0.00000  -0.11406   0.00000  -0.00000   0.00000
   7        3PX         0.26325   0.00000   0.00000   0.00000   0.00000
   8        3PY         0.00000   0.00000   0.00000   0.00000   0.00000
   9        3PZ         0.00000   0.00000   0.00000   0.00000  -0.00788
  10        4S          0.00000  11.72772   0.00000   0.00000   0.00000
  11        4PX         3.67497   0.00000   0.00000   0.00000   0.00000
  12        4PY         0.00000   0.00000   0.00000   0.00000   0.00000
  13        4PZ         0.00000   0.00000   0.00000   0.00000   3.02768
  14        5S          0.00000  19.11365   0.00000   0.00000   0.00000
  15        5PX        -1.06350   0.00000   0.00000   0.00000   0.00000
  16        5PY         0.00000   0.00000   0.00000   0.00000   0.00000
  17        5PZ         0.00000   0.00000   0.00000   0.00000   1.92302
  18        6D 0        0.00000  -0.00000   0.04296  -0.02110   0.00000
  19        6D+1        0.00000   0.00000   0.00000   0.00000   0.00000
  20        6D-1       -0.01516   0.00000   0.00000   0.00000   0.00000
  21        6D+2        0.00000  -0.00000   0.02110   0.04296   0.00000
  22        6D-2        0.00000   0.00000   0.00000   0.00000   0.02339
  23        7D 0        0.00000   0.00000  -0.19160   0.09411   0.00000
  24        7D+1        0.00000   0.00000   0.00000   0.00000   0.00000
  25        7D-1        0.28885   0.00000   0.00000   0.00000   0.00000
  26        7D+2        0.00000   0.00000  -0.09411  -0.19160   0.00000
  27        7D-2        0.00000   0.00000   0.00000   0.00000   0.16230
  28 2   H  1S          0.00407  -0.00384  -0.00000   0.00000   0.07032
  29        2S         -0.44074  -0.42463  -0.00000  -0.00000   0.03562
  30        3S         -3.27757  -5.76466  -0.00000  -0.00000  -2.85165
  31        4S          2.29953  -2.49314  -0.00000  -0.00000  -0.72656
  32        5PX        -0.00081  -0.00307  -0.00038   0.00560   0.00555
  33        5PY        -0.00211  -0.00307  -0.00466  -0.00313   0.00555
  34        5PZ        -0.00211  -0.00307   0.00504  -0.00247  -0.00531
  35        6PX         0.01572   0.00702   0.00020  -0.00296  -0.02293
  36        6PY         0.00058   0.00702   0.00246   0.00165  -0.02293
  37        6PZ         0.00058   0.00702  -0.00266   0.00131   0.01328
  38        7PX         0.21606   0.42470  -0.03145   0.46853   0.69566
  39        7PY         0.40661   0.42470  -0.39003  -0.26150   0.69566
  40        7PZ         0.40661   0.42470   0.42148  -0.20702  -0.13623
  41 3   H  1S         -0.00407  -0.00384  -0.00000   0.00000   0.07032
  42        2S          0.44074  -0.42463  -0.00000  -0.00000   0.03562
  43        3S          3.27757  -5.76466  -0.00000  -0.00000  -2.85165
  44        4S         -2.29953  -2.49314  -0.00000  -0.00000  -0.72656
  45        5PX        -0.00081   0.00307   0.00038  -0.00560  -0.00555
  46        5PY        -0.00211   0.00307   0.00466   0.00313  -0.00555
  47        5PZ         0.00211  -0.00307   0.00504  -0.00247  -0.00531
  48        6PX         0.01572  -0.00702  -0.00020   0.00296   0.02293
  49        6PY         0.00058  -0.00702  -0.00246  -0.00165   0.02293
  50        6PZ        -0.00058   0.00702  -0.00266   0.00131   0.01328
  51        7PX         0.21606  -0.42470   0.03145  -0.46853  -0.69566
  52        7PY         0.40661  -0.42470   0.39003   0.26150  -0.69566
  53        7PZ        -0.40661   0.42470   0.42148  -0.20702  -0.13623
  54 4   H  1S         -0.00407  -0.00384  -0.00000   0.00000  -0.07032
  55        2S          0.44074  -0.42463  -0.00000  -0.00000  -0.03562
  56        3S          3.27757  -5.76466  -0.00000  -0.00000   2.85165
  57        4S         -2.29953  -2.49314  -0.00000  -0.00000   0.72656
  58        5PX        -0.00081   0.00307   0.00038  -0.00560   0.00555
  59        5PY         0.00211  -0.00307  -0.00466  -0.00313  -0.00555
  60        5PZ        -0.00211   0.00307  -0.00504   0.00247  -0.00531
  61        6PX         0.01572  -0.00702  -0.00020   0.00296  -0.02293
  62        6PY        -0.00058   0.00702   0.00246   0.00165   0.02293
  63        6PZ         0.00058  -0.00702   0.00266  -0.00131   0.01328
  64        7PX         0.21606  -0.42470   0.03145  -0.46853   0.69566
  65        7PY        -0.40661   0.42470  -0.39003  -0.26150  -0.69566
  66        7PZ         0.40661  -0.42470  -0.42148   0.20702  -0.13623
  67 5   H  1S          0.00407  -0.00384  -0.00000   0.00000  -0.07032
  68        2S         -0.44074  -0.42463  -0.00000  -0.00000  -0.03562
  69        3S         -3.27757  -5.76466  -0.00000  -0.00000   2.85165
  70        4S          2.29953  -2.49314  -0.00000  -0.00000   0.72656
  71        5PX        -0.00081  -0.00307  -0.00038   0.00560  -0.00555
  72        5PY         0.00211   0.00307   0.00466   0.00313   0.00555
  73        5PZ         0.00211   0.00307  -0.00504   0.00247  -0.00531
  74        6PX         0.01572   0.00702   0.00020  -0.00296   0.02293
  75        6PY        -0.00058  -0.00702  -0.00246  -0.00165  -0.02293
  76        6PZ        -0.00058  -0.00702   0.00266  -0.00131   0.01328
  77        7PX         0.21606   0.42470  -0.03145   0.46853  -0.69566
  78        7PY        -0.40661  -0.42470   0.39003   0.26150   0.69566
  79        7PZ        -0.40661  -0.42470  -0.42148   0.20702  -0.13623
                          21        22        23        24        25
                        (T2)--V   (T2)--V   (T1)--V   (T1)--V   (T1)--V
     Eigenvalues --     0.47242   0.47242   0.64859   0.64859   0.64859
   1 1   C  1S          0.00000   0.00000   0.00000   0.00000   0.00000
   2        2S          0.00000   0.00000   0.00000   0.00000   0.00000
   3        2PX         0.00000  -0.04218  -0.00000   0.00000   0.00000
   4        2PY        -0.04218   0.00000   0.00000  -0.00000   0.00000
   5        2PZ         0.00000   0.00000   0.00000   0.00000   0.00000
   6        3S          0.00000   0.00000   0.00000   0.00000   0.00000
   7        3PX         0.00000  -0.00788   0.00000   0.00000   0.00000
   8        3PY        -0.00788   0.00000   0.00000   0.00000   0.00000
   9        3PZ         0.00000   0.00000   0.00000   0.00000   0.00000
  10        4S          0.00000   0.00000   0.00000   0.00000   0.00000
  11        4PX         0.00000   3.02768   0.00000   0.00000   0.00000
  12        4PY         3.02768   0.00000   0.00000   0.00000   0.00000
  13        4PZ         0.00000   0.00000   0.00000   0.00000  -0.00000
  14        5S          0.00000   0.00000   0.00000   0.00000   0.00000
  15        5PX         0.00000   1.92302  -0.00000   0.00000   0.00000
  16        5PY         1.92302   0.00000   0.00000  -0.00000   0.00000
  17        5PZ         0.00000   0.00000   0.00000   0.00000   0.00000
  18        6D 0        0.00000   0.00000   0.00000   0.00000   0.00000
  19        6D+1        0.02339   0.00000   0.00000  -0.00000   0.00000
  20        6D-1        0.00000   0.02339  -0.00000   0.00000   0.00000
  21        6D+2        0.00000   0.00000   0.00000   0.00000   0.00000
  22        6D-2        0.00000   0.00000   0.00000   0.00000   0.00000
  23        7D 0        0.00000   0.00000   0.00000   0.00000   0.00000
  24        7D+1        0.16230   0.00000   0.00000   0.00000   0.00000
  25        7D-1        0.00000   0.16230   0.00000   0.00000   0.00000
  26        7D+2        0.00000   0.00000   0.00000   0.00000   0.00000
  27        7D-2        0.00000   0.00000   0.00000   0.00000  -0.00000
  28 2   H  1S          0.07032   0.07032   0.00000   0.00000  -0.00000
  29        2S          0.03562   0.03562  -0.00000   0.00000   0.00000
  30        3S         -2.85165  -2.85165  -0.00000  -0.00000   0.00000
  31        4S         -0.72656  -0.72656   0.00000   0.00000  -0.00000
  32        5PX         0.00555  -0.00531   0.00000   0.00917   0.00917
  33        5PY        -0.00531   0.00555   0.00917   0.00000  -0.00917
  34        5PZ         0.00555   0.00555  -0.00917  -0.00917  -0.00000
  35        6PX        -0.02293   0.01328   0.00000  -0.04665  -0.04665
  36        6PY         0.01328  -0.02293  -0.04665  -0.00000   0.04665
  37        6PZ        -0.02293  -0.02293   0.04665   0.04665  -0.00000
  38        7PX         0.69566  -0.13623   0.00000   0.71935   0.71935
  39        7PY        -0.13623   0.69566   0.71935   0.00000  -0.71935
  40        7PZ         0.69566   0.69566  -0.71935  -0.71935  -0.00000
  41 3   H  1S         -0.07032  -0.07032  -0.00000  -0.00000  -0.00000
  42        2S         -0.03562  -0.03562   0.00000  -0.00000   0.00000
  43        3S          2.85165   2.85165   0.00000   0.00000   0.00000
  44        4S          0.72656   0.72656  -0.00000  -0.00000  -0.00000
  45        5PX         0.00555  -0.00531   0.00000   0.00917  -0.00917
  46        5PY        -0.00531   0.00555   0.00917   0.00000   0.00917
  47        5PZ        -0.00555  -0.00555   0.00917   0.00917  -0.00000
  48        6PX        -0.02293   0.01328   0.00000  -0.04665   0.04665
  49        6PY         0.01328  -0.02293  -0.04665  -0.00000  -0.04665
  50        6PZ         0.02293   0.02293  -0.04665  -0.04665  -0.00000
  51        7PX         0.69566  -0.13623   0.00000   0.71935  -0.71935
  52        7PY        -0.13623   0.69566   0.71935   0.00000   0.71935
  53        7PZ        -0.69566  -0.69566   0.71935   0.71935  -0.00000
  54 4   H  1S          0.07032  -0.07032  -0.00000   0.00000   0.00000
  55        2S          0.03562  -0.03562   0.00000   0.00000  -0.00000
  56        3S         -2.85165   2.85165   0.00000  -0.00000  -0.00000
  57        4S         -0.72656   0.72656  -0.00000   0.00000   0.00000
  58        5PX        -0.00555  -0.00531   0.00000  -0.00917   0.00917
  59        5PY        -0.00531  -0.00555  -0.00917   0.00000   0.00917
  60        5PZ        -0.00555   0.00555  -0.00917   0.00917  -0.00000
  61        6PX         0.02293   0.01328   0.00000   0.04665  -0.04665
  62        6PY         0.01328   0.02293   0.04665  -0.00000  -0.04665
  63        6PZ         0.02293  -0.02293   0.04665  -0.04665  -0.00000
  64        7PX        -0.69566  -0.13623   0.00000  -0.71935   0.71935
  65        7PY        -0.13623  -0.69566  -0.71935   0.00000   0.71935
  66        7PZ        -0.69566   0.69566  -0.71935   0.71935  -0.00000
  67 5   H  1S         -0.07032   0.07032   0.00000  -0.00000   0.00000
  68        2S         -0.03562   0.03562  -0.00000  -0.00000  -0.00000
  69        3S          2.85165  -2.85165  -0.00000   0.00000  -0.00000
  70        4S          0.72656  -0.72656   0.00000  -0.00000   0.00000
  71        5PX        -0.00555  -0.00531   0.00000  -0.00917  -0.00917
  72        5PY        -0.00531  -0.00555  -0.00917   0.00000  -0.00917
  73        5PZ         0.00555  -0.00555   0.00917  -0.00917  -0.00000
  74        6PX         0.02293   0.01328   0.00000   0.04665   0.04665
  75        6PY         0.01328   0.02293   0.04665  -0.00000   0.04665
  76        6PZ        -0.02293   0.02293  -0.04665   0.04665  -0.00000
  77        7PX        -0.69566  -0.13623   0.00000  -0.71935  -0.71935
  78        7PY        -0.13623  -0.69566  -0.71935   0.00000  -0.71935
  79        7PZ         0.69566  -0.69566   0.71935  -0.71935  -0.00000
                          26        27        28        29        30
                        (A1)--V   (T2)--V   (T2)--V   (T2)--V   (T2)--V
     Eigenvalues --     0.67546   0.69069   0.69069   0.69069   0.92610
   1 1   C  1S          0.02024   0.00000   0.00000   0.00000   0.00000
   2        2S          0.04192   0.00000   0.00000   0.00000   0.00000
   3        2PX         0.00000   0.00000   0.00000  -0.21416   0.03380
   4        2PY         0.00000   0.00000  -0.21416   0.00000   0.00000
   5        2PZ         0.00000  -0.21416   0.00000   0.00000   0.00000
   6        3S         -0.28722   0.00000   0.00000   0.00000   0.00000
   7        3PX         0.00000   0.00000   0.00000  -0.15431   0.01380
   8        3PY         0.00000   0.00000  -0.15431   0.00000   0.00000
   9        3PZ         0.00000  -0.15431   0.00000   0.00000   0.00000
  10        4S         18.93581   0.00000   0.00000   0.00000   0.00000
  11        4PX         0.00000   0.00000   0.00000   5.37859   7.96974
  12        4PY         0.00000   0.00000   5.37859   0.00000   0.00000
  13        4PZ         0.00000   5.37859   0.00000   0.00000   0.00000
  14        5S         16.33253   0.00000   0.00000   0.00000   0.00000
  15        5PX         0.00000   0.00000   0.00000  -1.33224   0.41774
  16        5PY         0.00000   0.00000  -1.33224   0.00000   0.00000
  17        5PZ         0.00000  -1.33224   0.00000   0.00000   0.00000
  18        6D 0       -0.00000   0.00000   0.00000   0.00000   0.00000
  19        6D+1        0.00000   0.00000  -0.02357   0.00000   0.00000
  20        6D-1        0.00000   0.00000   0.00000  -0.02357  -0.00502
  21        6D+2       -0.00000   0.00000   0.00000   0.00000   0.00000
  22        6D-2        0.00000  -0.02357   0.00000   0.00000   0.00000
  23        7D 0        0.00000   0.00000   0.00000   0.00000   0.00000
  24        7D+1        0.00000   0.00000   0.68446   0.00000   0.00000
  25        7D-1        0.00000   0.00000   0.00000   0.68446  -0.14477
  26        7D+2        0.00000   0.00000   0.00000   0.00000   0.00000
  27        7D-2        0.00000   0.68446   0.00000   0.00000   0.00000
  28 2   H  1S          0.09078   0.03272   0.03272   0.03272  -0.01464
  29        2S         -0.38940  -0.99144  -0.99144  -0.99144  -1.50362
  30        3S         -6.87092  -4.18902  -4.18902  -4.18902  -1.97937
  31        4S         -2.03906   1.92698   1.92698   1.92698   0.04396
  32        5PX         0.00410   0.00046   0.00046   0.00576  -0.00556
  33        5PY         0.00410   0.00046   0.00576   0.00046   0.00187
  34        5PZ         0.00410   0.00576   0.00046   0.00046   0.00187
  35        6PX        -0.01510   0.03524   0.03524   0.01016   0.05568
  36        6PY        -0.01510   0.03524   0.01016   0.03524  -0.00986
  37        6PZ        -0.01510   0.01016   0.03524   0.03524  -0.00986
  38        7PX         1.20635   0.98221   0.98221   1.12855  -1.22223
  39        7PY         1.20635   0.98221   1.12855   0.98221   0.87817
  40        7PZ         1.20635   1.12855   0.98221   0.98221   0.87817
  41 3   H  1S          0.09078   0.03272  -0.03272  -0.03272   0.01464
  42        2S         -0.38940  -0.99144   0.99144   0.99144   1.50362
  43        3S         -6.87092  -4.18902   4.18902   4.18902   1.97937
  44        4S         -2.03906   1.92698  -1.92698  -1.92698  -0.04396
  45        5PX        -0.00410  -0.00046   0.00046   0.00576  -0.00556
  46        5PY        -0.00410  -0.00046   0.00576   0.00046   0.00187
  47        5PZ         0.00410   0.00576  -0.00046  -0.00046  -0.00187
  48        6PX         0.01510  -0.03524   0.03524   0.01016   0.05568
  49        6PY         0.01510  -0.03524   0.01016   0.03524  -0.00986
  50        6PZ        -0.01510   0.01016  -0.03524  -0.03524   0.00986
  51        7PX        -1.20635  -0.98221   0.98221   1.12855  -1.22223
  52        7PY        -1.20635  -0.98221   1.12855   0.98221   0.87817
  53        7PZ         1.20635   1.12855  -0.98221  -0.98221  -0.87817
  54 4   H  1S          0.09078  -0.03272   0.03272  -0.03272   0.01464
  55        2S         -0.38940   0.99144  -0.99144   0.99144   1.50362
  56        3S         -6.87092   4.18902  -4.18902   4.18902   1.97937
  57        4S         -2.03906  -1.92698   1.92698  -1.92698  -0.04396
  58        5PX        -0.00410   0.00046  -0.00046   0.00576  -0.00556
  59        5PY         0.00410  -0.00046   0.00576  -0.00046  -0.00187
  60        5PZ        -0.00410   0.00576  -0.00046   0.00046   0.00187
  61        6PX         0.01510   0.03524  -0.03524   0.01016   0.05568
  62        6PY        -0.01510  -0.03524   0.01016  -0.03524   0.00986
  63        6PZ         0.01510   0.01016  -0.03524   0.03524  -0.00986
  64        7PX        -1.20635   0.98221  -0.98221   1.12855  -1.22223
  65        7PY         1.20635  -0.98221   1.12855  -0.98221  -0.87817
  66        7PZ        -1.20635   1.12855  -0.98221   0.98221   0.87817
  67 5   H  1S          0.09078  -0.03272  -0.03272   0.03272  -0.01464
  68        2S         -0.38940   0.99144   0.99144  -0.99144  -1.50362
  69        3S         -6.87092   4.18902   4.18902  -4.18902  -1.97937
  70        4S         -2.03906  -1.92698  -1.92698   1.92698   0.04396
  71        5PX         0.00410  -0.00046  -0.00046   0.00576  -0.00556
  72        5PY        -0.00410   0.00046   0.00576  -0.00046  -0.00187
  73        5PZ        -0.00410   0.00576   0.00046  -0.00046  -0.00187
  74        6PX        -0.01510  -0.03524  -0.03524   0.01016   0.05568
  75        6PY         0.01510   0.03524   0.01016  -0.03524   0.00986
  76        6PZ         0.01510   0.01016   0.03524  -0.03524   0.00986
  77        7PX         1.20635  -0.98221  -0.98221   1.12855  -1.22223
  78        7PY        -1.20635   0.98221   1.12855  -0.98221  -0.87817
  79        7PZ        -1.20635   1.12855   0.98221  -0.98221  -0.87817
                          31        32        33        34        35
                        (T2)--V   (T2)--V   (T2)--V   (T2)--V   (T2)--V
     Eigenvalues --     0.92610   0.92610   0.97402   0.97402   0.97402
   1 1   C  1S          0.00000   0.00000   0.00000   0.00000   0.00000
   2        2S          0.00000   0.00000   0.00000   0.00000   0.00000
   3        2PX         0.00000   0.00000  -0.16671   0.00000   0.00000
   4        2PY         0.03380   0.00000   0.00000   0.00000  -0.16671
   5        2PZ         0.00000   0.03380   0.00000  -0.16671   0.00000
   6        3S          0.00000   0.00000   0.00000   0.00000   0.00000
   7        3PX         0.00000   0.00000  -0.61470   0.00000   0.00000
   8        3PY         0.01380   0.00000   0.00000   0.00000  -0.61470
   9        3PZ         0.00000   0.01380   0.00000  -0.61470   0.00000
  10        4S          0.00000   0.00000   0.00000   0.00000   0.00000
  11        4PX         0.00000   0.00000   1.86980   0.00000   0.00000
  12        4PY         7.96974   0.00000   0.00000   0.00000   1.86980
  13        4PZ         0.00000   7.96974   0.00000   1.86980   0.00000
  14        5S          0.00000   0.00000   0.00000   0.00000   0.00000
  15        5PX         0.00000   0.00000  -0.76730   0.00000   0.00000
  16        5PY         0.41774   0.00000   0.00000   0.00000  -0.76730
  17        5PZ         0.00000   0.41774   0.00000  -0.76730   0.00000
  18        6D 0        0.00000   0.00000   0.00000   0.00000   0.00000
  19        6D+1       -0.00502   0.00000   0.00000   0.00000   0.02833
  20        6D-1        0.00000   0.00000   0.02833   0.00000   0.00000
  21        6D+2        0.00000   0.00000   0.00000   0.00000   0.00000
  22        6D-2        0.00000  -0.00502   0.00000   0.02833   0.00000
  23        7D 0        0.00000   0.00000   0.00000   0.00000   0.00000
  24        7D+1       -0.14477   0.00000   0.00000   0.00000   0.86966
  25        7D-1        0.00000   0.00000   0.86966   0.00000   0.00000
  26        7D+2        0.00000   0.00000   0.00000   0.00000   0.00000
  27        7D-2        0.00000  -0.14477   0.00000   0.86966   0.00000
  28 2   H  1S         -0.01464  -0.01464   0.03878   0.03878   0.03878
  29        2S         -1.50362  -1.50362  -0.53158  -0.53158  -0.53158
  30        3S         -1.97937  -1.97937   1.29350   1.29350   1.29350
  31        4S          0.04396   0.04396   0.51844   0.51844   0.51844
  32        5PX         0.00187   0.00187  -0.00918  -0.00769  -0.00769
  33        5PY        -0.00556   0.00187  -0.00769  -0.00769  -0.00918
  34        5PZ         0.00187  -0.00556  -0.00769  -0.00918  -0.00769
  35        6PX        -0.00986  -0.00986   0.08138   0.08362   0.08362
  36        6PY         0.05568  -0.00986   0.08362   0.08362   0.08138
  37        6PZ        -0.00986   0.05568   0.08362   0.08138   0.08362
  38        7PX         0.87817   0.87817  -1.12080  -0.54163  -0.54163
  39        7PY        -1.22223   0.87817  -0.54163  -0.54163  -1.12080
  40        7PZ         0.87817  -1.22223  -0.54163  -1.12080  -0.54163
  41 3   H  1S          0.01464  -0.01464  -0.03878   0.03878  -0.03878
  42        2S          1.50362  -1.50362   0.53158  -0.53158   0.53158
  43        3S          1.97937  -1.97937  -1.29350   1.29350  -1.29350
  44        4S         -0.04396   0.04396  -0.51844   0.51844  -0.51844
  45        5PX         0.00187  -0.00187  -0.00918   0.00769  -0.00769
  46        5PY        -0.00556  -0.00187  -0.00769   0.00769  -0.00918
  47        5PZ        -0.00187  -0.00556   0.00769  -0.00918   0.00769
  48        6PX        -0.00986   0.00986   0.08138  -0.08362   0.08362
  49        6PY         0.05568   0.00986   0.08362  -0.08362   0.08138
  50        6PZ         0.00986   0.05568  -0.08362   0.08138  -0.08362
  51        7PX         0.87817  -0.87817  -1.12080   0.54163  -0.54163
  52        7PY        -1.22223  -0.87817  -0.54163   0.54163  -1.12080
  53        7PZ        -0.87817  -1.22223   0.54163  -1.12080   0.54163
  54 4   H  1S         -0.01464   0.01464  -0.03878  -0.03878   0.03878
  55        2S         -1.50362   1.50362   0.53158   0.53158  -0.53158
  56        3S         -1.97937   1.97937  -1.29350  -1.29350   1.29350
  57        4S          0.04396  -0.04396  -0.51844  -0.51844   0.51844
  58        5PX        -0.00187   0.00187  -0.00918  -0.00769   0.00769
  59        5PY        -0.00556  -0.00187   0.00769   0.00769  -0.00918
  60        5PZ        -0.00187  -0.00556  -0.00769  -0.00918   0.00769
  61        6PX         0.00986  -0.00986   0.08138   0.08362  -0.08362
  62        6PY         0.05568   0.00986  -0.08362  -0.08362   0.08138
  63        6PZ         0.00986   0.05568   0.08362   0.08138  -0.08362
  64        7PX        -0.87817   0.87817  -1.12080  -0.54163   0.54163
  65        7PY        -1.22223  -0.87817   0.54163   0.54163  -1.12080
  66        7PZ        -0.87817  -1.22223  -0.54163  -1.12080   0.54163
  67 5   H  1S          0.01464   0.01464   0.03878  -0.03878  -0.03878
  68        2S          1.50362   1.50362  -0.53158   0.53158   0.53158
  69        3S          1.97937   1.97937   1.29350  -1.29350  -1.29350
  70        4S         -0.04396  -0.04396   0.51844  -0.51844  -0.51844
  71        5PX        -0.00187  -0.00187  -0.00918   0.00769   0.00769
  72        5PY        -0.00556   0.00187   0.00769  -0.00769  -0.00918
  73        5PZ         0.00187  -0.00556   0.00769  -0.00918  -0.00769
  74        6PX         0.00986   0.00986   0.08138  -0.08362  -0.08362
  75        6PY         0.05568  -0.00986  -0.08362   0.08362   0.08138
  76        6PZ        -0.00986   0.05568  -0.08362   0.08138   0.08362
  77        7PX        -0.87817  -0.87817  -1.12080   0.54163   0.54163
  78        7PY        -1.22223   0.87817   0.54163  -0.54163  -1.12080
  79        7PZ         0.87817  -1.22223   0.54163  -1.12080  -0.54163
                          36        37        38        39        40
                        (A1)--V   (E)--V    (E)--V    (A1)--V   (T2)--V
     Eigenvalues --     1.03841   1.15734   1.15734   1.23631   1.49280
   1 1   C  1S          0.11529  -0.00000   0.00000  -0.03204   0.00000
   2        2S          0.23858  -0.00000   0.00000  -0.05615   0.00000
   3        2PX         0.00000   0.00000   0.00000   0.00000   0.00000
   4        2PY         0.00000   0.00000   0.00000   0.00000   0.00000
   5        2PZ         0.00000   0.00000   0.00000   0.00000   0.18582
   6        3S         -2.13168   0.00000  -0.00000  -0.42861   0.00000
   7        3PX         0.00000   0.00000   0.00000   0.00000   0.00000
   8        3PY         0.00000   0.00000   0.00000   0.00000   0.00000
   9        3PZ         0.00000   0.00000   0.00000   0.00000   1.42554
  10        4S         10.83425   0.00000  -0.00000  29.40695   0.00000
  11        4PX         0.00000   0.00000   0.00000   0.00000   0.00000
  12        4PY         0.00000   0.00000   0.00000   0.00000   0.00000
  13        4PZ         0.00000   0.00000   0.00000   0.00000   7.08420
  14        5S          5.14227   0.00000  -0.00000  11.64511   0.00000
  15        5PX         0.00000   0.00000   0.00000   0.00000   0.00000
  16        5PY         0.00000   0.00000   0.00000   0.00000   0.00000
  17        5PZ         0.00000   0.00000   0.00000   0.00000  -0.76685
  18        6D 0       -0.00000  -0.00143   0.00046  -0.00000   0.00000
  19        6D+1        0.00000   0.00000   0.00000   0.00000   0.00000
  20        6D-1        0.00000   0.00000   0.00000   0.00000   0.00000
  21        6D+2       -0.00000  -0.00046  -0.00143  -0.00000   0.00000
  22        6D-2        0.00000   0.00000   0.00000   0.00000  -0.00780
  23        7D 0        0.00000   1.47815  -0.47077  -0.00000   0.00000
  24        7D+1        0.00000   0.00000   0.00000   0.00000   0.00000
  25        7D-1        0.00000   0.00000   0.00000   0.00000   0.00000
  26        7D+2       -0.00000   0.47077   1.47815   0.00000   0.00000
  27        7D-2        0.00000   0.00000   0.00000   0.00000   2.66220
  28 2   H  1S          0.05538  -0.00000   0.00000  -0.06818  -0.02993
  29        2S         -0.67361  -0.00000   0.00000  -2.84307  -3.14338
  30        3S         -3.07935  -0.00000   0.00000  -7.19307  -3.52106
  31        4S         -0.43713  -0.00000   0.00000  -1.25911   1.18537
  32        5PX        -0.00918  -0.00039   0.00180  -0.00014  -0.00561
  33        5PY        -0.00918  -0.00136  -0.00124  -0.00014  -0.00561
  34        5PZ        -0.00918   0.00176  -0.00056  -0.00014  -0.01003
  35        6PX         0.11243  -0.00579   0.02647   0.00331   0.07443
  36        6PY         0.11243  -0.02003  -0.01825   0.00331   0.07443
  37        6PZ         0.11243   0.02582  -0.00822   0.00331   0.11904
  38        7PX         0.23093   0.10040  -0.45917   1.60202   1.10957
  39        7PY         0.23093   0.34745   0.31653   1.60202   1.10957
  40        7PZ         0.23093  -0.44785   0.14263   1.60202   0.80080
  41 3   H  1S          0.05538  -0.00000   0.00000  -0.06818  -0.02993
  42        2S         -0.67361  -0.00000   0.00000  -2.84307  -3.14338
  43        3S         -3.07935  -0.00000   0.00000  -7.19307  -3.52106
  44        4S         -0.43713  -0.00000   0.00000  -1.25911   1.18537
  45        5PX         0.00918   0.00039  -0.00180   0.00014   0.00561
  46        5PY         0.00918   0.00136   0.00124   0.00014   0.00561
  47        5PZ        -0.00918   0.00176  -0.00056  -0.00014  -0.01003
  48        6PX        -0.11243   0.00579  -0.02647  -0.00331  -0.07443
  49        6PY        -0.11243   0.02003   0.01825  -0.00331  -0.07443
  50        6PZ         0.11243   0.02582  -0.00822   0.00331   0.11904
  51        7PX        -0.23093  -0.10040   0.45917  -1.60202  -1.10957
  52        7PY        -0.23093  -0.34745  -0.31653  -1.60202  -1.10957
  53        7PZ         0.23093  -0.44785   0.14263   1.60202   0.80080
  54 4   H  1S          0.05538  -0.00000   0.00000  -0.06818   0.02993
  55        2S         -0.67361  -0.00000   0.00000  -2.84307   3.14338
  56        3S         -3.07935  -0.00000   0.00000  -7.19307   3.52106
  57        4S         -0.43713  -0.00000   0.00000  -1.25911  -1.18537
  58        5PX         0.00918   0.00039  -0.00180   0.00014  -0.00561
  59        5PY        -0.00918  -0.00136  -0.00124  -0.00014   0.00561
  60        5PZ         0.00918  -0.00176   0.00056   0.00014  -0.01003
  61        6PX        -0.11243   0.00579  -0.02647  -0.00331   0.07443
  62        6PY         0.11243  -0.02003  -0.01825   0.00331  -0.07443
  63        6PZ        -0.11243  -0.02582   0.00822  -0.00331   0.11904
  64        7PX        -0.23093  -0.10040   0.45917  -1.60202   1.10957
  65        7PY         0.23093   0.34745   0.31653   1.60202  -1.10957
  66        7PZ        -0.23093   0.44785  -0.14263  -1.60202   0.80080
  67 5   H  1S          0.05538  -0.00000   0.00000  -0.06818   0.02993
  68        2S         -0.67361  -0.00000   0.00000  -2.84307   3.14338
  69        3S         -3.07935  -0.00000   0.00000  -7.19307   3.52106
  70        4S         -0.43713  -0.00000   0.00000  -1.25911  -1.18537
  71        5PX        -0.00918  -0.00039   0.00180  -0.00014   0.00561
  72        5PY         0.00918   0.00136   0.00124   0.00014  -0.00561
  73        5PZ         0.00918  -0.00176   0.00056   0.00014  -0.01003
  74        6PX         0.11243  -0.00579   0.02647   0.00331  -0.07443
  75        6PY        -0.11243   0.02003   0.01825  -0.00331   0.07443
  76        6PZ        -0.11243  -0.02582   0.00822  -0.00331   0.11904
  77        7PX         0.23093   0.10040  -0.45917   1.60202  -1.10957
  78        7PY        -0.23093  -0.34745  -0.31653  -1.60202   1.10957
  79        7PZ        -0.23093   0.44785  -0.14263  -1.60202   0.80080
                          41        42        43        44        45
                        (T2)--V   (T2)--V   (T1)--V   (T1)--V   (T1)--V
     Eigenvalues --     1.49280   1.49280   2.05199   2.05199   2.05199
   1 1   C  1S          0.00000   0.00000   0.00000   0.00000   0.00000
   2        2S          0.00000   0.00000   0.00000   0.00000   0.00000
   3        2PX         0.00000   0.18582   0.00000   0.00000   0.00000
   4        2PY         0.18582   0.00000   0.00000   0.00000   0.00000
   5        2PZ         0.00000   0.00000   0.00000   0.00000  -0.00000
   6        3S          0.00000   0.00000   0.00000   0.00000   0.00000
   7        3PX         0.00000   1.42554   0.00000   0.00000   0.00000
   8        3PY         1.42554   0.00000   0.00000   0.00000   0.00000
   9        3PZ         0.00000   0.00000   0.00000   0.00000   0.00000
  10        4S          0.00000   0.00000   0.00000   0.00000   0.00000
  11        4PX         0.00000   7.08420   0.00000   0.00000   0.00000
  12        4PY         7.08420   0.00000   0.00000   0.00000   0.00000
  13        4PZ         0.00000   0.00000   0.00000   0.00000  -0.00000
  14        5S          0.00000   0.00000   0.00000   0.00000   0.00000
  15        5PX         0.00000  -0.76685  -0.00000   0.00000   0.00000
  16        5PY        -0.76685   0.00000   0.00000  -0.00000   0.00000
  17        5PZ         0.00000   0.00000   0.00000   0.00000   0.00000
  18        6D 0        0.00000   0.00000   0.00000   0.00000   0.00000
  19        6D+1       -0.00780   0.00000   0.00000   0.00000   0.00000
  20        6D-1        0.00000  -0.00780   0.00000   0.00000   0.00000
  21        6D+2        0.00000   0.00000   0.00000   0.00000   0.00000
  22        6D-2        0.00000   0.00000   0.00000   0.00000  -0.00000
  23        7D 0        0.00000   0.00000   0.00000   0.00000   0.00000
  24        7D+1        2.66220   0.00000   0.00000   0.00000   0.00000
  25        7D-1        0.00000   2.66220   0.00000   0.00000   0.00000
  26        7D+2        0.00000   0.00000   0.00000   0.00000   0.00000
  27        7D-2        0.00000   0.00000   0.00000   0.00000   0.00000
  28 2   H  1S         -0.02993  -0.02993  -0.00000  -0.00000   0.00000
  29        2S         -3.14338  -3.14338  -0.00000  -0.00000   0.00000
  30        3S         -3.52106  -3.52106  -0.00000  -0.00000   0.00000
  31        4S          1.18537   1.18537   0.00000   0.00000  -0.00000
  32        5PX        -0.00561  -0.01003   0.00000  -0.02843  -0.02843
  33        5PY        -0.01003  -0.00561  -0.02843  -0.00000   0.02843
  34        5PZ        -0.00561  -0.00561   0.02843   0.02843  -0.00000
  35        6PX         0.07443   0.11904  -0.00000   0.46425   0.46425
  36        6PY         0.11904   0.07443   0.46425   0.00000  -0.46425
  37        6PZ         0.07443   0.07443  -0.46425  -0.46425   0.00000
  38        7PX         1.10957   0.80080   0.00000  -0.40437  -0.40437
  39        7PY         0.80080   1.10957  -0.40437   0.00000   0.40437
  40        7PZ         1.10957   1.10957   0.40437   0.40437  -0.00000
  41 3   H  1S          0.02993   0.02993   0.00000   0.00000   0.00000
  42        2S          3.14338   3.14338   0.00000   0.00000   0.00000
  43        3S          3.52106   3.52106   0.00000   0.00000   0.00000
  44        4S         -1.18537  -1.18537  -0.00000  -0.00000  -0.00000
  45        5PX        -0.00561  -0.01003   0.00000  -0.02843   0.02843
  46        5PY        -0.01003  -0.00561  -0.02843  -0.00000  -0.02843
  47        5PZ         0.00561   0.00561  -0.02843  -0.02843  -0.00000
  48        6PX         0.07443   0.11904  -0.00000   0.46425  -0.46425
  49        6PY         0.11904   0.07443   0.46425   0.00000   0.46425
  50        6PZ        -0.07443  -0.07443   0.46425   0.46425   0.00000
  51        7PX         1.10957   0.80080   0.00000  -0.40437   0.40437
  52        7PY         0.80080   1.10957  -0.40437   0.00000  -0.40437
  53        7PZ        -1.10957  -1.10957  -0.40437  -0.40437  -0.00000
  54 4   H  1S         -0.02993   0.02993   0.00000  -0.00000  -0.00000
  55        2S         -3.14338   3.14338   0.00000  -0.00000  -0.00000
  56        3S         -3.52106   3.52106   0.00000  -0.00000  -0.00000
  57        4S          1.18537  -1.18537  -0.00000   0.00000   0.00000
  58        5PX         0.00561  -0.01003   0.00000   0.02843  -0.02843
  59        5PY        -0.01003   0.00561   0.02843  -0.00000  -0.02843
  60        5PZ         0.00561  -0.00561   0.02843  -0.02843  -0.00000
  61        6PX        -0.07443   0.11904  -0.00000  -0.46425   0.46425
  62        6PY         0.11904  -0.07443  -0.46425   0.00000   0.46425
  63        6PZ        -0.07443   0.07443  -0.46425   0.46425   0.00000
  64        7PX        -1.10957   0.80080   0.00000   0.40437  -0.40437
  65        7PY         0.80080  -1.10957   0.40437   0.00000  -0.40437
  66        7PZ        -1.10957   1.10957   0.40437  -0.40437  -0.00000
  67 5   H  1S          0.02993  -0.02993  -0.00000   0.00000  -0.00000
  68        2S          3.14338  -3.14338  -0.00000   0.00000  -0.00000
  69        3S          3.52106  -3.52106  -0.00000   0.00000  -0.00000
  70        4S         -1.18537   1.18537   0.00000  -0.00000   0.00000
  71        5PX         0.00561  -0.01003   0.00000   0.02843   0.02843
  72        5PY        -0.01003   0.00561   0.02843  -0.00000   0.02843
  73        5PZ        -0.00561   0.00561  -0.02843   0.02843  -0.00000
  74        6PX        -0.07443   0.11904  -0.00000  -0.46425  -0.46425
  75        6PY         0.11904  -0.07443  -0.46425   0.00000  -0.46425
  76        6PZ         0.07443  -0.07443   0.46425  -0.46425   0.00000
  77        7PX        -1.10957   0.80080   0.00000   0.40437   0.40437
  78        7PY         0.80080  -1.10957   0.40437   0.00000   0.40437
  79        7PZ         1.10957  -1.10957  -0.40437   0.40437  -0.00000
                          46        47        48        49        50
                        (T2)--V   (T2)--V   (T2)--V   (E)--V    (E)--V
     Eigenvalues --     2.17932   2.17932   2.17932   2.58702   2.58702
   1 1   C  1S          0.00000   0.00000   0.00000   0.00000   0.00000
   2        2S          0.00000   0.00000   0.00000   0.00000   0.00000
   3        2PX         0.00000   0.00000  -0.10909   0.00000   0.00000
   4        2PY         0.00000  -0.10909   0.00000   0.00000   0.00000
   5        2PZ        -0.10909   0.00000   0.00000   0.00000   0.00000
   6        3S          0.00000   0.00000   0.00000   0.00000  -0.00000
   7        3PX         0.00000   0.00000   0.49172   0.00000   0.00000
   8        3PY         0.00000   0.49172   0.00000   0.00000   0.00000
   9        3PZ         0.49172   0.00000   0.00000   0.00000   0.00000
  10        4S          0.00000   0.00000   0.00000  -0.00000  -0.00000
  11        4PX         0.00000   0.00000   1.78031   0.00000   0.00000
  12        4PY         0.00000   1.78031   0.00000   0.00000   0.00000
  13        4PZ         1.78031   0.00000   0.00000   0.00000   0.00000
  14        5S          0.00000   0.00000   0.00000  -0.00000  -0.00000
  15        5PX         0.00000   0.00000   0.59475   0.00000   0.00000
  16        5PY         0.00000   0.59475   0.00000   0.00000   0.00000
  17        5PZ         0.59475   0.00000   0.00000   0.00000   0.00000
  18        6D 0        0.00000   0.00000   0.00000  -0.10183  -0.00512
  19        6D+1        0.00000  -0.12056   0.00000   0.00000   0.00000
  20        6D-1        0.00000   0.00000  -0.12056   0.00000   0.00000
  21        6D+2        0.00000   0.00000   0.00000   0.00512  -0.10183
  22        6D-2       -0.12056   0.00000   0.00000   0.00000   0.00000
  23        7D 0        0.00000   0.00000   0.00000   1.68228   0.08455
  24        7D+1        0.00000   1.21770   0.00000   0.00000   0.00000
  25        7D-1        0.00000   0.00000   1.21770   0.00000   0.00000
  26        7D+2        0.00000   0.00000   0.00000  -0.08455   1.68228
  27        7D-2        1.21770   0.00000   0.00000   0.00000   0.00000
  28 2   H  1S         -0.18464  -0.18464  -0.18464   0.00000   0.00000
  29        2S         -0.69951  -0.69951  -0.69951  -0.00000  -0.00000
  30        3S         -0.64597  -0.64597  -0.64597   0.00000   0.00000
  31        4S         -0.27829  -0.27829  -0.27829   0.00000   0.00000
  32        5PX         0.01182   0.01182  -0.03866  -0.02370   0.03666
  33        5PY         0.01182  -0.03866   0.01182  -0.01990  -0.03885
  34        5PZ        -0.03866   0.01182   0.01182   0.04360   0.00219
  35        6PX        -0.09231  -0.09231   0.71160   0.39735  -0.61474
  36        6PY        -0.09231   0.71160  -0.09231   0.33371   0.65148
  37        6PZ         0.71160  -0.09231  -0.09231  -0.73106  -0.03674
  38        7PX         0.20909   0.20909  -0.34756   0.03689  -0.05707
  39        7PY         0.20909  -0.34756   0.20909   0.03098   0.06048
  40        7PZ        -0.34756   0.20909   0.20909  -0.06787  -0.00341
  41 3   H  1S         -0.18464   0.18464   0.18464   0.00000   0.00000
  42        2S         -0.69951   0.69951   0.69951  -0.00000  -0.00000
  43        3S         -0.64597   0.64597   0.64597   0.00000   0.00000
  44        4S         -0.27829   0.27829   0.27829   0.00000   0.00000
  45        5PX        -0.01182   0.01182  -0.03866   0.02370  -0.03666
  46        5PY        -0.01182  -0.03866   0.01182   0.01990   0.03885
  47        5PZ        -0.03866  -0.01182  -0.01182   0.04360   0.00219
  48        6PX         0.09231  -0.09231   0.71160  -0.39735   0.61474
  49        6PY         0.09231   0.71160  -0.09231  -0.33371  -0.65148
  50        6PZ         0.71160   0.09231   0.09231  -0.73106  -0.03674
  51        7PX        -0.20909   0.20909  -0.34756  -0.03689   0.05707
  52        7PY        -0.20909  -0.34756   0.20909  -0.03098  -0.06048
  53        7PZ        -0.34756  -0.20909  -0.20909  -0.06787  -0.00341
  54 4   H  1S          0.18464  -0.18464   0.18464   0.00000   0.00000
[...]
      X  X                                                                                                                           
      X  X                                                                                                                           
      X  X                                                                                                                           
      X  X                                                                                                                           
      X  X                                                                                                                           
      X  X                                                                                                                           
      X  X                                                                                                                           
      X  X                                                                                                                           
      X  X                                                                                                                           
      X  X                                                                                                                           
         X                                                                                                                           
         X                                                                                                                           
         X                                                                                                                           
         X                                                                                                                           
         X                                                                                                                           
         X                                                                                                                           
 
 ***** Axes restored to original set *****
 -------------------------------------------------------------------
 Center     Atomic                   Forces (Hartrees/Bohr)
 Number     Number              X              Y              Z
 -------------------------------------------------------------------
      1        6           0.000000000    0.000000000   -0.000000000
      2        1           0.000000018   -0.000000051    0.000000000
      3        1           0.000000018    0.000000025    0.000000044
      4        1           0.000000018    0.000000025   -0.000000044
      5        1          -0.000000054    0.000000000   -0.000000000
 -------------------------------------------------------------------
 Cartesian Forces:  Max     0.000000054 RMS     0.000000028
 Force constants in Cartesian coordinates: 
                1             2             3             4             5 
      1  0.598207D+00
      2  0.000000D+00  0.598207D+00
      3  0.000000D+00  0.000000D+00  0.598207D+00
      4 -0.861301D-01  0.896858D-01  0.000000D+00  0.871822D-01
      5  0.896858D-01 -0.308102D+00  0.000000D+00 -0.997893D-01  0.334161D+00
      6  0.000000D+00  0.000000D+00 -0.544226D-01  0.000000D+00  0.000000D+00
      7 -0.861334D-01 -0.448447D-01 -0.776739D-01  0.441208D-02  0.502929D-02
      8 -0.448447D-01 -0.117841D+00 -0.109845D+00 -0.130018D-01 -0.144813D-01
      9 -0.776739D-01 -0.109845D+00 -0.244681D+00  0.169885D-02  0.559470D-03
     10 -0.861334D-01 -0.448447D-01  0.776739D-01  0.441208D-02  0.502929D-02
     11 -0.448447D-01 -0.117841D+00  0.109845D+00 -0.130018D-01 -0.144813D-01
     12  0.776739D-01  0.109845D+00 -0.244681D+00 -0.169885D-02 -0.559470D-03
     13 -0.339810D+00  0.350738D-05  0.000000D+00 -0.987635D-02  0.449465D-04
     14  0.350800D-05 -0.544226D-01  0.000000D+00  0.361070D-01  0.290431D-02
     15  0.000000D+00  0.000000D+00 -0.544226D-01  0.000000D+00  0.000000D+00
                6             7             8             9            10 
      6  0.519028D-01
      7  0.121087D-01  0.871859D-01
      8 -0.288852D-01  0.498966D-01  0.122465D+00
      9  0.187235D-02  0.864242D-01  0.122219D+00  0.263594D+00
     10 -0.121087D-01  0.441238D-02  0.797208D-02 -0.104104D-01  0.871859D-01
     11  0.288852D-01  0.797208D-02  0.100490D-01 -0.147222D-01  0.498966D-01
     12  0.187235D-02  0.104104D-01  0.147222D-01 -0.226583D-01 -0.864242D-01
     13  0.000000D+00 -0.987701D-02 -0.222756D-04 -0.387666D-04 -0.987701D-02
     14  0.000000D+00 -0.180533D-01 -0.192248D-03  0.178818D-02 -0.180533D-01
     15 -0.122488D-02 -0.312695D-01  0.178857D-02  0.187235D-02  0.312695D-01
               11            12            13            14            15 
     11  0.122465D+00
     12 -0.122219D+00  0.263594D+00
     13 -0.222757D-04  0.387670D-04  0.369440D+00
     14 -0.192248D-03 -0.178818D-02 -0.390281D-05  0.519028D-01
     15 -0.178857D-02  0.187235D-02  0.000000D+00  0.000000D+00  0.519028D-01
 FormGI is forming the generalized inverse of G from B-inverse, IUseBI=4.
 Force constants in internal coordinates: 
                1             2             3             4             5 
      1  0.369440D+00
      2  0.333449D-02  0.369440D+00
      3  0.333449D-02  0.333449D-02  0.369440D+00
      4  0.333449D-02  0.333449D-02  0.333449D-02  0.369440D+00
      5  0.209533D-02  0.209533D-02 -0.131567D-02 -0.287498D-02  0.220413D-01
      6  0.328388D-02 -0.847453D-03  0.365464D-02 -0.609107D-02 -0.964198D-02
      7  0.641734D-02 -0.515039D-02 -0.570124D-02  0.443430D-02 -0.145555D-01
      8 -0.847453D-03  0.328388D-02  0.365464D-02 -0.609107D-02 -0.964198D-02
      9 -0.515039D-02  0.641734D-02 -0.570124D-02  0.443430D-02 -0.145555D-01
     10 -0.579870D-02 -0.579870D-02  0.540887D-02  0.618852D-02  0.263537D-01
     11 -0.405824D-02 -0.405824D-02 -0.286464D-02  0.109811D-01 -0.151860D-01
     12  0.334208D-02  0.334208D-02 -0.859392D-02  0.190976D-02  0.916815D-02
     13 -0.440075D-02  0.774283D-02 -0.429696D-02  0.954880D-03  0.458407D-02
     14 -0.774283D-02  0.440075D-02  0.429696D-02 -0.954880D-03 -0.458407D-02
                6             7             8             9            10 
      6  0.416951D-01
      7 -0.252578D-01  0.814509D-01
      8 -0.206582D-02  0.272289D-01  0.416951D-01
      9  0.272289D-01 -0.392599D-01 -0.252578D-01  0.814509D-01
     10 -0.319584D-01 -0.296067D-01 -0.319584D-01 -0.296067D-01  0.967765D-01
     11 -0.124589D-01  0.166197D-01 -0.124589D-01  0.166197D-01  0.686437D-02
     12 -0.106019D-01  0.800985D-02 -0.106019D-01  0.800985D-02 -0.398403D-02
     13 -0.160282D-01 -0.813653D-03  0.542634D-02  0.882350D-02 -0.199202D-02
     14 -0.542634D-02 -0.882350D-02  0.160282D-01  0.813653D-03  0.199202D-02
               11            12            13            14 
     11  0.338580D-01
     12  0.175599D-02  0.210387D-01
     13  0.877993D-03  0.105193D-01  0.213486D-01
     14 -0.877993D-03 -0.105193D-01  0.108293D-01  0.213486D-01
 Leave Link  716 at Fri Sep  6 16:33:23 2024, MaxMem=   536870912 cpu:               0.1 elap:               0.0
 (Enter /Users/asuyarger/Applications/G16/g16/l103.exe)

 GradGradGradGradGradGradGradGradGradGradGradGradGradGradGradGradGradGrad
 Berny optimization.
 Red2BG is reusing G-inverse.
 Internal  Forces:  Max     0.000000054 RMS     0.000000029
 Search for a local minimum.
 Step number   1 out of a maximum of    2
 All quantities printed in internal units (Hartrees-Bohrs-Radians)
 Second derivative matrix not updated -- analytic derivatives used.
 The second derivative matrix:
                          R1        R2        R3        R4        A1
           R1           0.36944
           R2           0.00333   0.36944
           R3           0.00333   0.00333   0.36944
           R4           0.00333   0.00333   0.00333   0.36944
           A1           0.00210   0.00210  -0.00132  -0.00287   0.02204
           A2           0.00328  -0.00085   0.00365  -0.00609  -0.00964
           A3           0.00642  -0.00515  -0.00570   0.00443  -0.01456
           A4          -0.00085   0.00328   0.00365  -0.00609  -0.00964
           A5          -0.00515   0.00642  -0.00570   0.00443  -0.01456
           A6          -0.00580  -0.00580   0.00541   0.00619   0.02635
           D1          -0.00406  -0.00406  -0.00286   0.01098  -0.01519
           D2           0.00334   0.00334  -0.00859   0.00191   0.00917
           D3          -0.00440   0.00774  -0.00430   0.00095   0.00458
           D4          -0.00774   0.00440   0.00430  -0.00095  -0.00458
                          A2        A3        A4        A5        A6
           A2           0.04170
           A3          -0.02526   0.08145
           A4          -0.00207   0.02723   0.04170
           A5           0.02723  -0.03926  -0.02526   0.08145
           A6          -0.03196  -0.02961  -0.03196  -0.02961   0.09678
           D1          -0.01246   0.01662  -0.01246   0.01662   0.00686
           D2          -0.01060   0.00801  -0.01060   0.00801  -0.00398
           D3          -0.01603  -0.00081   0.00543   0.00882  -0.00199
           D4          -0.00543  -0.00882   0.01603   0.00081   0.00199
                          D1        D2        D3        D4
           D1           0.03386
           D2           0.00176   0.02104
           D3           0.00088   0.01052   0.02135
           D4          -0.00088  -0.01052   0.01083   0.02135
 ITU=  0
     Eigenvalues ---    0.04310   0.04860   0.07400   0.14659   0.14701
     Eigenvalues ---    0.36713   0.36714   0.36745   0.37944
 Angle between quadratic step and forces=  90.00 degrees.
 Linear search not attempted -- first point.
 Iteration  1 RMS(Cart)=  0.00000008 RMS(Int)=  0.00000000
 ITry= 1 IFail=0 DXMaxC= 1.42D-07 DCOld= 1.00D+10 DXMaxT= 3.00D-01 DXLimC= 3.00D+00 Rises=F
 ClnCor:  largest displacement from symmetrization is 4.75D-14 for atom     3.
 Variable       Old X    -DE/DX   Delta X   Delta X   Delta X     New X
                                 (Linear)    (Quad)   (Total)
    R1        2.04411   0.00000   0.00000   0.00000   0.00000   2.04412
    R2        2.04411   0.00000   0.00000   0.00000   0.00000   2.04412
    R3        2.04411   0.00000   0.00000   0.00000   0.00000   2.04412
    R4        2.04411   0.00000   0.00000   0.00000   0.00000   2.04412
    A1        1.91063  -0.00000   0.00000  -0.00000  -0.00000   1.91063
    A2        1.91063   0.00000   0.00000   0.00000  -0.00000   1.91063
    A3        1.91063   0.00000   0.00000   0.00000   0.00000   1.91063
    A4        1.91063   0.00000   0.00000   0.00000   0.00000   1.91063
    A5        1.91063   0.00000   0.00000  -0.00000   0.00000   1.91063
    A6        1.91063  -0.00000   0.00000  -0.00000   0.00000   1.91063
    D1       -2.09440   0.00000   0.00000   0.00000   0.00000  -2.09440
    D2        2.09440  -0.00000   0.00000  -0.00000   0.00000   2.09440
    D3       -2.09440  -0.00000   0.00000  -0.00000   0.00000  -2.09440
    D4        2.09440   0.00000   0.00000   0.00000   0.00000   2.09440
         Item               Value     Threshold  Converged?
 Maximum Force            0.000000     0.000015     YES
 RMS     Force            0.000000     0.000010     YES
 Maximum Displacement     0.000000     0.000060     YES
 RMS     Displacement     0.000000     0.000040     YES
 Predicted change in Energy=-1.539567D-14
 Optimization completed.
    -- Stationary point found.
                           ----------------------------
                           !   Optimized Parameters   !
                           ! (Angstroms and Degrees)  !
 --------------------------                            --------------------------
 ! Name  Definition              Value          Derivative Info.                !
 --------------------------------------------------------------------------------
 ! R1    R(1,2)                  1.0817         -DE/DX =    0.0                 !
 ! R2    R(1,3)                  1.0817         -DE/DX =    0.0                 !
 ! R3    R(1,4)                  1.0817         -DE/DX =    0.0                 !
 ! R4    R(1,5)                  1.0817         -DE/DX =    0.0                 !
 ! A1    A(2,1,3)              109.4712         -DE/DX =    0.0                 !
 ! A2    A(2,1,4)              109.4712         -DE/DX =    0.0                 !
 ! A3    A(2,1,5)              109.4712         -DE/DX =    0.0                 !
 ! A4    A(3,1,4)              109.4712         -DE/DX =    0.0                 !
 ! A5    A(3,1,5)              109.4712         -DE/DX =    0.0                 !
 ! A6    A(4,1,5)              109.4712         -DE/DX =    0.0                 !
 ! D1    D(2,1,4,3)           -120.0            -DE/DX =    0.0                 !
 ! D2    D(2,1,5,3)            120.0            -DE/DX =    0.0                 !
 ! D3    D(2,1,5,4)           -120.0            -DE/DX =    0.0                 !
 ! D4    D(3,1,5,4)            120.0            -DE/DX =    0.0                 !
 --------------------------------------------------------------------------------
 GradGradGradGradGradGradGradGradGradGradGradGradGradGradGradGradGradGrad

 Leave Link  103 at Fri Sep  6 16:33:23 2024, MaxMem=   536870912 cpu:               0.0 elap:               0.0
 (Enter /Users/asuyarger/Applications/G16/g16/l9999.exe)
 Dipole is zero, so no output in dipole orientation.

 ----------------------------------------------------------------------

 Electric dipole moment (input orientation):
 (Debye = 10**-18 statcoulomb cm , SI units = C m)
                  (au)            (Debye)         (10**-30 SI)
   Tot        0.000000D+00      0.000000D+00      0.000000D+00
   x          0.000000D+00      0.000000D+00      0.000000D+00
   y          0.000000D+00      0.000000D+00      0.000000D+00
   z          0.000000D+00      0.000000D+00      0.000000D+00

 Dipole polarizability, Alpha (input orientation).
 (esu units = cm**3 , SI units = C**2 m**2 J**-1)
 Alpha(0;0):
               (au)            (10**-24 esu)      (10**-40 SI)
   iso        0.155726D+02      0.230762D+01      0.256757D+01
   aniso      0.000000D+00      0.000000D+00      0.000000D+00
   xx         0.155726D+02      0.230762D+01      0.256757D+01
   yx         0.000000D+00      0.000000D+00      0.000000D+00
   yy         0.155726D+02      0.230762D+01      0.256757D+01
   zx         0.000000D+00      0.000000D+00      0.000000D+00
   zy         0.000000D+00      0.000000D+00      0.000000D+00
   zz         0.155726D+02      0.230762D+01      0.256757D+01

 First dipole hyperpolarizability, Beta (input orientation).
 ||, _|_  parallel and perpendicular components, (z) with respect to z axis,
 vector components x,y,z.  Values do not include the 1/n! factor of 1/2.
 (esu units = statvolt**-1 cm**4 , SI units = C**3 m**3 J**-2)
 Beta(0;0,0):
               (au)            (10**-30 esu)      (10**-50 SI)
   || (z)     0.000000D+00      0.000000D+00      0.000000D+00
   _|_(z)     0.000000D+00      0.000000D+00      0.000000D+00
   x          0.000000D+00      0.000000D+00      0.000000D+00
   y          0.000000D+00      0.000000D+00      0.000000D+00
   z          0.000000D+00      0.000000D+00      0.000000D+00
   ||         0.000000D+00      0.000000D+00      0.000000D+00
   xxx       -0.169311D+02     -0.146272D+00     -0.542874D-01
   xxy        0.416195D-03      0.359560D-05      0.133447D-05
   yxy        0.846543D+01      0.731347D-01      0.271432D-01
   yyy       -0.119724D+02     -0.103433D+00     -0.383880D-01
   xxz        0.000000D+00      0.000000D+00      0.000000D+00
   yxz        0.000000D+00      0.000000D+00      0.000000D+00
   yyz        0.000000D+00      0.000000D+00      0.000000D+00
   zxz        0.846572D+01      0.731372D-01      0.271442D-01
   zyz        0.119720D+02      0.103429D+00      0.383866D-01
   zzz        0.000000D+00      0.000000D+00      0.000000D+00

 ----------------------------------------------------------------------
 1\1\GINC-JEFFSMACSTUDIO\Freq\RHF\6-311++G(2d,3p)\C1H4\ROOT\06-Sep-2024
 \0\\#P Geom=AllCheck Guess=TCheck SCRF=Check GenChk RHF/6-311++G(2d,3p
 ) Freq\\CH4 HF 6-311++g(2d,3p) Opt Freq - Full - NBO\\0,1\C,-0.0813742
 99,0.28028924,0.\H,0.2791795152,-0.7395508332,-0.0000000141\H,0.279198
 3298,0.7902026213,0.8832035727\H,0.2791983047,0.7902026369,-0.88320357
 39\H,-1.1630733457,0.280302535,0.0000000153\\Version=EM64M-G16RevA.03\
 State=1-A1\HF=-40.2118795\RMSD=1.269e-09\RMSF=2.791e-08\ZeroPoint=0.04
 69596\Thermal=0.0498147\Dipole=0.,0.,0.\DipoleDeriv=0.0692515,0.,0.,0.
 ,0.0692515,0.,0.,0.,0.0692515,0.0340733,0.0726662,0.,0.0726662,-0.1457
 755,0.,0.,0.,0.0597636,0.0340706,-0.0363345,-0.0629338,-0.0363345,0.00
 83802,-0.0889995,-0.0629338,-0.0889995,-0.0943894,0.0340706,-0.0363345
 ,0.0629338,-0.0363345,0.0083802,0.0889995,0.0629338,0.0889995,-0.09438
 94,-0.1714659,0.0000028,0.,0.0000028,0.0597636,0.,0.,0.,0.0597636\Pola
 r=15.5725791,0.,15.5725791,0.,0.,15.5725791\PolarDeriv=6.8763245,-0.00
 01691,-3.4381024,-0.0000002,0.,-3.4382219,-0.0001692,-3.4381025,4.8624
 223,0.,0.0000002,-4.8622535,-0.0000002,0.,0.0000002,-3.4382219,-4.8622
 534,0.,0.8062024,-1.4978392,2.3256587,0.,0.,0.8067292,-1.9987816,2.148
 5558,-8.0898892,0.,0.,-1.0517806,0.,0.,0.,0.6296263,-0.5508382,0.,0.80
 62945,0.7489592,1.1864909,1.2972221,0.657743,1.9460104,0.9994271,1.009
 3787,1.8187234,0.657743,1.7622801,2.7520025,1.731049,0.657743,2.196107
 1,1.7688982,2.5015346,5.7207159,0.8062944,0.7489592,1.1864909,-1.29722
 2,-0.657743,1.9460103,0.9994271,1.0093787,1.8187235,-0.657743,-1.76228
 02,2.7520025,-1.7310489,-0.657743,-2.1961071,1.7688981,2.5015346,-5.72
 0716,-9.2951159,0.0000898,-1.260538,0.0000001,0.,-1.2605279,0.0000963,
 -0.7292107,-0.4099801,0.,0.,0.4100291,0.0000001,0.,0.,-0.7292006,0.410
 0225,0.\HyperPolar=-16.9311471,0.0004162,8.4654264,-11.9724411,0.00000
 05,0.0000002,-0.0000004,8.4657207,11.9720249,0.\Quadrupole=0.,0.,0.,0.
 ,0.,0.\PG=TD [O(C1),4C3(H1)]\NImag=0\\0.59820661,0.,0.59820662,0.,0.,0
 .59820661,-0.08613006,0.08968583,0.,0.08718224,0.08968583,-0.30810232,
 0.,-0.09978935,0.33416069,0.,0.,-0.05442257,0.,0.,0.05190276,-0.086133
 37,-0.04484467,-0.07767392,0.00441208,0.00502929,0.01210872,0.08718592
 ,-0.04484467,-0.11784086,-0.10984464,-0.01300176,-0.01448134,-0.028885
 23,0.04989663,0.12246540,-0.07767392,-0.10984464,-0.24468073,0.0016988
 5,0.00055947,0.00187235,0.08642424,0.12221914,0.26359437,-0.08613337,-
 0.04484467,0.07767391,0.00441208,0.00502929,-0.01210872,0.00441238,0.0
 0797208,-0.01041041,0.08718592,-0.04484467,-0.11784086,0.10984464,-0.0
 1300176,-0.01448134,0.02888523,0.00797208,0.01004905,-0.01472216,0.049
 89662,0.12246540,0.07767391,0.10984464,-0.24468073,-0.00169885,-0.0005
 5947,0.00187235,0.01041041,0.01472216,-0.02265834,-0.08642424,-0.12221
 915,0.26359437,-0.33980981,0.00000351,0.,-0.00987635,0.00004495,0.,-0.
 00987701,-0.00002228,-0.00003877,-0.00987701,-0.00002228,0.00003877,0.
 36944017,0.00000351,-0.05442258,0.,0.03610704,0.00290431,0.,-0.0180533
 2,-0.00019225,0.00178818,-0.01805332,-0.00019225,-0.00178818,-0.000003
 90,0.05190276,0.,0.,-0.05442258,0.,0.,-0.00122488,-0.03126946,0.001788
 57,0.00187235,0.03126946,-0.00178857,0.00187235,0.,0.,0.05190276\\0.,0
 .,0.,-0.00000002,0.00000005,0.,-0.00000002,-0.00000003,-0.00000004,-0.
 00000002,-0.00000003,0.00000004,0.00000005,0.,0.\\\@


 ORIGINALITY CONSISTS NOT IN SAYING WHAT NO ONE HAS EVER SAID BEFORE, 
 BUT IN SAYING WHAT YOU THINK YOUR SELF.

                                    -- JAMES F. STEPHEN
 Job cpu time:       0 days  0 hours  0 minutes  2.4 seconds.
 Elapsed time:       0 days  0 hours  0 minutes  2.0 seconds.
 File lengths (MBytes):  RWF=      7 Int=      0 D2E=      0 Chk=      2 Scr=      1
 Normal termination of Gaussian 16 at Fri Sep  6 16:33:23 2024.
