 Entering Gaussian System, Link 0=g16
 Input=/Users/asuyarger/Downloads/CH4_DFT_B3LPY_apVTZ_Opt_Freq_Full_NBO_Raman.gjf
 Output=/Users/asuyarger/Downloads/CH4_DFT_B3LPY_apVTZ_Opt_Freq_Full_NBO_Raman.log
 Initial command:
 /Users/asuyarger/Applications/G16/g16/l1.exe "/Users/asuyarger/Applications/G16/scratch/Gau-92872.inp" -scrdir="/Users/asuyarger/Applications/G16/scratch/"
 Entering Link 1 = /Users/asuyarger/Applications/G16/g16/l1.exe PID=     92873.
  
 Copyright (c) 1988,1990,1992,1993,1995,1998,2003,2009,2016,
            Gaussian, Inc.  All Rights Reserved.
  
 This is part of the Gaussian(R) 16 program.  It is based on
 the Gaussian(R) 09 system (copyright 2009, Gaussian, Inc.),
 the Gaussian(R) 03 system (copyright 2003, Gaussian, Inc.),
 the Gaussian(R) 98 system (copyright 1998, Gaussian, Inc.),
 the Gaussian(R) 94 system (copyright 1995, Gaussian, Inc.),
 the Gaussian 92(TM) system (copyright 1992, Gaussian, Inc.),
 the Gaussian 90(TM) system (copyright 1990, Gaussian, Inc.),
 the Gaussian 88(TM) system (copyright 1988, Gaussian, Inc.),
 the Gaussian 86(TM) system (copyright 1986, Carnegie Mellon
 University), and the Gaussian 82(TM) system (copyright 1983,
 Carnegie Mellon University). Gaussian is a federally registered
 trademark of Gaussian, Inc.
  
 This software contains proprietary and confidential information,
 including trade secrets, belonging to Gaussian, Inc.
  
 This software is provided under written license and may be
 used, copied, transmitted, or stored only in accord with that
 written license.
  
 The following legend is applicable only to US Government
 contracts under FAR:
  
                    RESTRICTED RIGHTS LEGEND
  
 Use, reproduction and disclosure by the US Government is
 subject to restrictions as set forth in subparagraphs (a)
 and (c) of the Commercial Computer Software - Restricted
 Rights clause in FAR 52.227-19.
  
 Gaussian, Inc.
 340 Quinnipiac St., Bldg. 40, Wallingford CT 06492
  
  
 ---------------------------------------------------------------
 Warning -- This program may not be used in any manner that
 competes with the business of Gaussian, Inc. or will provide
 assistance to any competitor of Gaussian, Inc.  The licensee
 of this program is prohibited from giving any competitor of
 Gaussian, Inc. access to this program.  By using this program,
 the user acknowledges that Gaussian, Inc. is engaged in the
 business of creating and licensing software in the field of
 computational chemistry and represents and warrants to the
 licensee that it is not a competitor of Gaussian, Inc. and that
 it will not use this program in any manner prohibited above.
 ---------------------------------------------------------------
  

 Cite this work as:
 Gaussian 16, Revision A.03,
 M. J. Frisch, G. W. Trucks, H. B. Schlegel, G. E. Scuseria, 
 M. A. Robb, J. R. Cheeseman, G. Scalmani, V. Barone, 
 G. A. Petersson, H. Nakatsuji, X. Li, M. Caricato, A. V. Marenich, 
 J. Bloino, B. G. Janesko, R. Gomperts, B. Mennucci, H. P. Hratchian, 
 J. V. Ortiz, A. F. Izmaylov, J. L. Sonnenberg, D. Williams-Young, 
 F. Ding, F. Lipparini, F. Egidi, J. Goings, B. Peng, A. Petrone, 
 T. Henderson, D. Ranasinghe, V. G. Zakrzewski, J. Gao, N. Rega, 
 G. Zheng, W. Liang, M. Hada, M. Ehara, K. Toyota, R. Fukuda, 
 J. Hasegawa, M. Ishida, T. Nakajima, Y. Honda, O. Kitao, H. Nakai, 
 T. Vreven, K. Throssell, J. A. Montgomery, Jr., J. E. Peralta, 
 F. Ogliaro, M. J. Bearpark, J. J. Heyd, E. N. Brothers, K. N. Kudin, 
 V. N. Staroverov, T. A. Keith, R. Kobayashi, J. Normand, 
 K. Raghavachari, A. P. Rendell, J. C. Burant, S. S. Iyengar, 
 J. Tomasi, M. Cossi, J. M. Millam, M. Klene, C. Adamo, R. Cammi, 
 J. W. Ochterski, R. L. Martin, K. Morokuma, O. Farkas, 
 J. B. Foresman, and D. J. Fox, Gaussian, Inc., Wallingford CT, 2016.
 
 ******************************************
 Gaussian 16:  EM64M-G16RevA.03 25-Dec-2016
                 6-Sep-2024 
 ******************************************
 %nprocshared=4
 Will use up to    4 processors via shared memory.
 %mem=4GB
 %chk=CH4_DFT_B3LPY_apVTZ_Opt_Freq_Full_NBO_Raman.chk
 ----------------------------------------------------------------------
 #p opt=tight freq=raman b3lyp/aug-cc-pvtz guess=save pop=(hirshfeld,fu
 ll,nbo) geom=connectivity polar
 ----------------------------------------------------------------------
 1/7=10,18=20,19=15,26=3,38=1,57=2/1,3;
 2/9=110,12=2,17=6,18=5,40=1/2;
 3/5=16,6=1,7=10,11=2,25=1,30=1,71=1,74=-5/1,2,3;
 4//1;
 5/5=2,38=5,98=1/2;
 6/7=3,28=1,40=1,79=1/1,7;
 7//1,2,3,16;
 1/7=10,18=20,19=15,26=3/3(2);
 2/9=110/2;
 99//99;
 2/9=110/2;
 3/5=16,6=1,7=10,11=2,25=1,30=1,71=1,74=-5/1,2,3;
 4/5=5,16=3,69=1/1;
 5/5=2,38=5,98=1/2;
 7//1,2,3,16;
 1/7=10,18=20,19=15,26=3/3(-5);
 2/9=110/2;
 6/7=3,19=2,28=1,40=1,79=1/1,7;
 99/9=1/99;
 Leave Link    1 at Fri Sep  6 16:35:11 2024, MaxMem=   536870912 cpu:               0.1 elap:               0.0
 (Enter /Users/asuyarger/Applications/G16/g16/l101.exe)
 -----------------------------------------------
 CH4 DFT B3LPY aug-cc-pVTZ Opt Freq - Full - NBO
 -----------------------------------------------
 Symbolic Z-matrix:
 Charge =  0 Multiplicity = 1
 C                    -0.08137   0.28029   0. 
 H                     0.27528  -0.72852   0. 
 H                     0.2753    0.78469   0.87365 
 H                     0.2753    0.78469  -0.87365 
 H                    -1.15137   0.2803    0. 
 
 ITRead=  0  0  0  0  0
 MicOpt= -1 -1 -1 -1 -1
 NAtoms=      5 NQM=        5 NQMF=       0 NMMI=      0 NMMIF=      0
                NMic=       0 NMicF=      0.
                    Isotopes and Nuclear Properties:
 (Nuclear quadrupole moments (NQMom) in fm**2, nuclear magnetic moments (NMagM)
  in nuclear magnetons)

  Atom         1           2           3           4           5
 IAtWgt=          12           1           1           1           1
 AtmWgt=  12.0000000   1.0078250   1.0078250   1.0078250   1.0078250
 NucSpn=           0           1           1           1           1
 AtZEff=  -0.0000000  -0.0000000  -0.0000000  -0.0000000  -0.0000000
 NQMom=    0.0000000   0.0000000   0.0000000   0.0000000   0.0000000
 NMagM=    0.0000000   2.7928460   2.7928460   2.7928460   2.7928460
 AtZNuc=   6.0000000   1.0000000   1.0000000   1.0000000   1.0000000
 Leave Link  101 at Fri Sep  6 16:35:12 2024, MaxMem=   536870912 cpu:               0.4 elap:               0.1
 (Enter /Users/asuyarger/Applications/G16/g16/l103.exe)

 GradGradGradGradGradGradGradGradGradGradGradGradGradGradGradGradGradGrad
 Berny optimization.
 Initialization pass.
                           ----------------------------
                           !    Initial Parameters    !
                           ! (Angstroms and Degrees)  !
 --------------------------                            --------------------------
 ! Name  Definition              Value          Derivative Info.                !
 --------------------------------------------------------------------------------
 ! R1    R(1,2)                  1.07           estimate D2E/DX2                !
 ! R2    R(1,3)                  1.07           estimate D2E/DX2                !
 ! R3    R(1,4)                  1.07           estimate D2E/DX2                !
 ! R4    R(1,5)                  1.07           estimate D2E/DX2                !
 ! A1    A(2,1,3)              109.4712         estimate D2E/DX2                !
 ! A2    A(2,1,4)              109.4712         estimate D2E/DX2                !
 ! A3    A(2,1,5)              109.4712         estimate D2E/DX2                !
 ! A4    A(3,1,4)              109.4712         estimate D2E/DX2                !
 ! A5    A(3,1,5)              109.4712         estimate D2E/DX2                !
 ! A6    A(4,1,5)              109.4712         estimate D2E/DX2                !
 ! D1    D(2,1,4,3)           -120.0            estimate D2E/DX2                !
 ! D2    D(2,1,5,3)            120.0            estimate D2E/DX2                !
 ! D3    D(2,1,5,4)           -120.0            estimate D2E/DX2                !
 ! D4    D(3,1,5,4)            120.0            estimate D2E/DX2                !
 --------------------------------------------------------------------------------
 Trust Radius=3.00D-01 FncErr=1.00D-07 GrdErr=1.00D-06 EigMax=2.50D+02 EigMin=1.00D-04
 Number of steps in this run=     24 maximum allowed number of steps=    100.
 GradGradGradGradGradGradGradGradGradGradGradGradGradGradGradGradGradGrad

 Leave Link  103 at Fri Sep  6 16:35:12 2024, MaxMem=   536870912 cpu:               0.0 elap:               0.0
 (Enter /Users/asuyarger/Applications/G16/g16/l202.exe)
                          Input orientation:                          
 ---------------------------------------------------------------------
 Center     Atomic      Atomic             Coordinates (Angstroms)
 Number     Number       Type             X           Y           Z
 ---------------------------------------------------------------------
      1          6           0       -0.081374    0.280289    0.000000
      2          1           0        0.275280   -0.728521    0.000000
      3          1           0        0.275299    0.784688    0.873651
      4          1           0        0.275299    0.784688   -0.873651
      5          1           0       -1.151374    0.280302    0.000000
 ---------------------------------------------------------------------
                    Distance matrix (angstroms):
                    1          2          3          4          5
     1  C    0.000000
     2  H    1.070000   0.000000
     3  H    1.070000   1.747303   0.000000
     4  H    1.070000   1.747303   1.747303   0.000000
     5  H    1.070000   1.747303   1.747303   1.747303   0.000000
 Stoichiometry    CH4
 Framework group  TD[O(C),4C3(H)]
 Deg. of freedom     1
 Full point group                 TD      NOp  24
 Largest Abelian subgroup         D2      NOp   4
 Largest concise Abelian subgroup D2      NOp   4
                         Standard orientation:                         
 ---------------------------------------------------------------------
 Center     Atomic      Atomic             Coordinates (Angstroms)
 Number     Number       Type             X           Y           Z
 ---------------------------------------------------------------------
      1          6           0        0.000000    0.000000    0.000000
      2          1           0        0.617765    0.617765    0.617765
      3          1           0       -0.617765   -0.617765    0.617765
      4          1           0       -0.617765    0.617765   -0.617765
      5          1           0        0.617765   -0.617765   -0.617765
 ---------------------------------------------------------------------
 Rotational constants (GHZ):         164.2463651         164.2463651         164.2463651
 Leave Link  202 at Fri Sep  6 16:35:12 2024, MaxMem=   536870912 cpu:               0.0 elap:               0.0
 (Enter /Users/asuyarger/Applications/G16/g16/l301.exe)
 Standard basis: Aug-CC-pVTZ (5D, 7F)
 Ernie: Thresh=  0.10000D-02 Tol=  0.10000D-05 Strict=F.
 Ernie:  3 primitive shells out of 74 were deleted.
 There are    41 symmetry adapted cartesian basis functions of A   symmetry.
 There are    38 symmetry adapted cartesian basis functions of B1  symmetry.
 There are    38 symmetry adapted cartesian basis functions of B2  symmetry.
 There are    38 symmetry adapted cartesian basis functions of B3  symmetry.
 There are    36 symmetry adapted basis functions of A   symmetry.
 There are    34 symmetry adapted basis functions of B1  symmetry.
 There are    34 symmetry adapted basis functions of B2  symmetry.
 There are    34 symmetry adapted basis functions of B3  symmetry.
   138 basis functions,   180 primitive gaussians,   155 cartesian basis functions
     5 alpha electrons        5 beta electrons
       nuclear repulsion energy        13.6865179973 Hartrees.
 IExCor=  402 DFT=T Ex+Corr=B3LYP ExCW=0 ScaHFX=  0.200000
 ScaDFX=  0.800000  0.720000  1.000000  0.810000 ScalE2=  1.000000  1.000000
 IRadAn=      5 IRanWt=     -1 IRanGd=            0 ICorTp=0 IEmpDi=  4
 NAtoms=    5 NActive=    5 NUniq=    2 SFac= 4.00D+00 NAtFMM=   60 NAOKFM=F Big=F
 Integral buffers will be    131072 words long.
 Raffenetti 2 integral format.
 Two-electron integral symmetry is turned on.
 Leave Link  301 at Fri Sep  6 16:35:12 2024, MaxMem=   536870912 cpu:               0.1 elap:               0.0
 (Enter /Users/asuyarger/Applications/G16/g16/l302.exe)
 NPDir=0 NMtPBC=     1 NCelOv=     1 NCel=       1 NClECP=     1 NCelD=      1
         NCelK=      1 NCelE2=     1 NClLst=     1 CellRange=     0.0.
 One-electron integrals computed using PRISM.
 One-electron integral symmetry used in STVInt
 NBasis=   138 RedAO= T EigKep=  7.75D-05  NBF=    36    34    34    34
 NBsUse=   138 1.00D-06 EigRej= -1.00D+00 NBFU=    36    34    34    34
 Precomputing XC quadrature grid using
 IXCGrd= 4 IRadAn=           5 IRanWt=          -1 IRanGd=           0 AccXCQ= 0.00D+00.
 Generated NRdTot=       0 NPtTot=           0 NUsed=           0 NTot=          32
 NSgBfM=   155   155   155   155   155 MxSgAt=     5 MxSgA2=     5.
 Leave Link  302 at Fri Sep  6 16:35:12 2024, MaxMem=   536870912 cpu:               0.5 elap:               0.1
 (Enter /Users/asuyarger/Applications/G16/g16/l303.exe)
 DipDrv:  MaxL=1.
 Leave Link  303 at Fri Sep  6 16:35:12 2024, MaxMem=   536870912 cpu:               0.1 elap:               0.0
 (Enter /Users/asuyarger/Applications/G16/g16/l401.exe)
 ExpMin= 2.53D-02 ExpMax= 8.24D+03 ExpMxC= 2.81D+02 IAcc=3 IRadAn=         5 AccDes= 0.00D+00
 Harris functional with IExCor=  402 and IRadAn=       5 diagonalized for initial guess.
 HarFok:  IExCor=  402 AccDes= 0.00D+00 IRadAn=         5 IDoV= 1 UseB2=F ITyADJ=14
 ICtDFT=  3500011 ScaDFX=  1.000000  1.000000  1.000000  1.000000
 FoFCou: FMM=F IPFlag=           0 FMFlag=      100000 FMFlg1=           0
         NFxFlg=           0 DoJE=T BraDBF=F KetDBF=T FulRan=T
         wScrn=  0.000000 ICntrl=       500 IOpCl=  0 I1Cent=   200000004 NGrid=           0
         NMat0=    1 NMatS0=      1 NMatT0=    0 NMatD0=    1 NMtDS0=    0 NMtDT0=    0
 Petite list used in FoFCou.
 Harris En= -40.5931416496181    
 JPrj=0 DoOrth=F DoCkMO=F.
 Initial guess orbital symmetries:
       Occupied  (A1) (A1) (T2) (T2) (T2)
       Virtual   (A1) (T2) (T2) (T2) (T2) (T2) (T2) (A1) (T2) (T2)
                 (T2) (E) (E) (T2) (T2) (T2) (A1) (T1) (T1) (T1)
                 (T2) (T2) (T2) (A1) (T2) (T2) (T2) (E) (E) (T2)
                 (T2) (T2) (A1) (T2) (T2) (T2) (T1) (T1) (T1) (E)
                 (E) (A1) (T2) (T2) (T2) (T2) (T2) (T2) (T1) (T1)
                 (T1) (E) (E) (T2) (T2) (T2) (E) (E) (A1) (T2)
                 (T2) (T2) (A1) (T1) (T1) (T1) (T2) (T2) (T2) (T2)
                 (T2) (T2) (T1) (T1) (T1) (T2) (T2) (T2) (E) (E)
                 (A1) (A1) (T2) (T2) (T2) (E) (E) (T2) (T2) (T2)
                 (T1) (T1) (T1) (T2) (T2) (T2) (T2) (T2) (T2) (T1)
                 (T1) (T1) (E) (E) (A1) (T2) (T2) (T2) (E) (E)
                 (T2) (T2) (T2) (T1) (T1) (T1) (A1) (T2) (T2) (T2)
                 (T1) (T1) (T1) (A1) (E) (E) (T2) (T2) (T2) (T2)
                 (T2) (T2) (A1)
 The electronic state of the initial guess is 1-A1.
 Leave Link  401 at Fri Sep  6 16:35:12 2024, MaxMem=   536870912 cpu:               0.7 elap:               0.2
 (Enter /Users/asuyarger/Applications/G16/g16/l502.exe)
 Keep R1 ints in memory in symmetry-blocked form, NReq=57528245.
 FoFCou: FMM=F IPFlag=           0 FMFlag=           0 FMFlg1=           0
         NFxFlg=           0 DoJE=F BraDBF=F KetDBF=F FulRan=T
         wScrn=  0.000000 ICntrl=       600 IOpCl=  0 I1Cent=           0 NGrid=           0
         NMat0=    1 NMatS0=   9591 NMatT0=    0 NMatD0=    1 NMtDS0=    0 NMtDT0=    0
 Petite list used in FoFCou.
 Closed shell SCF:
 Using DIIS extrapolation, IDIIS=  1040.
 NGot=   536870912 LenX=   525291546 LenY=   525267080
 Requested convergence on RMS density matrix=1.00D-08 within 128 cycles.
 Requested convergence on MAX density matrix=1.00D-06.
 Requested convergence on             energy=1.00D-06.
 No special actions if energy rises.

 Cycle   1  Pass 1  IDiag  1:
 E= -40.4298298000494    
 DIIS: error= 4.62D-02 at cycle   1 NSaved=   1.
 NSaved= 1 IEnMin= 1 EnMin= -40.4298298000494     IErMin= 1 ErrMin= 4.62D-02
 ErrMax= 4.62D-02  0.00D+00 EMaxC= 1.00D-01 BMatC= 1.11D-01 BMatP= 1.11D-01
 IDIUse=3 WtCom= 5.38D-01 WtEn= 4.62D-01
 Coeff-Com:  0.100D+01
 Coeff-En:   0.100D+01
 Coeff:      0.100D+01
 Gap=     0.274 Goal=   None    Shift=    0.000
 GapD=    0.274 DampG=1.000 DampE=0.500 DampFc=0.5000 IDamp=-1.
 Damping current iteration by 5.00D-01
 RMSDP=2.47D-03 MaxDP=7.49D-02              OVMax= 2.16D-01

 Cycle   2  Pass 1  IDiag  1:
 E= -40.4783431874256     Delta-E=       -0.048513387376 Rises=F Damp=T
 DIIS: error= 6.19D-03 at cycle   2 NSaved=   2.
 NSaved= 2 IEnMin= 2 EnMin= -40.4783431874256     IErMin= 2 ErrMin= 6.19D-03
 ErrMax= 6.19D-03  0.00D+00 EMaxC= 1.00D-01 BMatC= 2.46D-03 BMatP= 1.11D-01
 IDIUse=3 WtCom= 9.38D-01 WtEn= 6.19D-02
 Coeff-Com:  0.648D-01 0.935D+00
 Coeff-En:   0.136D+00 0.864D+00
 Coeff:      0.692D-01 0.931D+00
 Gap=     0.386 Goal=   None    Shift=    0.000
 RMSDP=3.87D-04 MaxDP=8.63D-03 DE=-4.85D-02 OVMax= 1.18D-01

 Cycle   3  Pass 1  IDiag  1:
 E= -40.5375351080400     Delta-E=       -0.059191920614 Rises=F Damp=F
 DIIS: error= 7.98D-04 at cycle   3 NSaved=   3.
 NSaved= 3 IEnMin= 3 EnMin= -40.5375351080400     IErMin= 3 ErrMin= 7.98D-04
 ErrMax= 7.98D-04  0.00D+00 EMaxC= 1.00D-01 BMatC= 2.21D-05 BMatP= 2.46D-03
 IDIUse=3 WtCom= 9.92D-01 WtEn= 7.98D-03
 Coeff-Com: -0.120D-01 0.735D-02 0.100D+01
 Coeff-En:   0.000D+00 0.000D+00 0.100D+01
 Coeff:     -0.119D-01 0.730D-02 0.100D+01
 Gap=     0.391 Goal=   None    Shift=    0.000
 RMSDP=5.27D-05 MaxDP=1.01D-03 DE=-5.92D-02 OVMax= 2.02D-03

 Cycle   4  Pass 1  IDiag  1:
 E= -40.5375608813555     Delta-E=       -0.000025773316 Rises=F Damp=F
 DIIS: error= 1.35D-04 at cycle   4 NSaved=   4.
 NSaved= 4 IEnMin= 4 EnMin= -40.5375608813555     IErMin= 4 ErrMin= 1.35D-04
 ErrMax= 1.35D-04  0.00D+00 EMaxC= 1.00D-01 BMatC= 6.96D-07 BMatP= 2.21D-05
 IDIUse=3 WtCom= 9.99D-01 WtEn= 1.35D-03
 Coeff-Com:  0.172D-02-0.273D-02 0.370D-01 0.964D+00
 Coeff-En:   0.000D+00 0.000D+00 0.000D+00 0.100D+01
 Coeff:      0.171D-02-0.272D-02 0.369D-01 0.964D+00
 Gap=     0.391 Goal=   None    Shift=    0.000
 RMSDP=3.46D-06 MaxDP=1.24D-04 DE=-2.58D-05 OVMax= 2.79D-04

 Cycle   5  Pass 1  IDiag  1:
 E= -40.5375616291262     Delta-E=       -0.000000747771 Rises=F Damp=F
 DIIS: error= 2.33D-06 at cycle   5 NSaved=   5.
 NSaved= 5 IEnMin= 5 EnMin= -40.5375616291262     IErMin= 5 ErrMin= 2.33D-06
 ErrMax= 2.33D-06  0.00D+00 EMaxC= 1.00D-01 BMatC= 2.51D-10 BMatP= 6.96D-07
 IDIUse=1 WtCom= 1.00D+00 WtEn= 0.00D+00
 Coeff-Com: -0.121D-04-0.722D-04-0.154D-02 0.558D-02 0.996D+00
 Coeff:     -0.121D-04-0.722D-04-0.154D-02 0.558D-02 0.996D+00
 Gap=     0.391 Goal=   None    Shift=    0.000
 RMSDP=3.84D-07 MaxDP=7.06D-06 DE=-7.48D-07 OVMax= 6.11D-06

 Cycle   6  Pass 1  IDiag  1:
 E= -40.5375616294088     Delta-E=       -0.000000000283 Rises=F Damp=F
 DIIS: error= 1.92D-07 at cycle   6 NSaved=   6.
 NSaved= 6 IEnMin= 6 EnMin= -40.5375616294088     IErMin= 6 ErrMin= 1.92D-07
 ErrMax= 1.92D-07  0.00D+00 EMaxC= 1.00D-01 BMatC= 1.39D-12 BMatP= 2.51D-10
 IDIUse=1 WtCom= 1.00D+00 WtEn= 0.00D+00
 Coeff-Com: -0.151D-06-0.971D-06-0.554D-04-0.199D-02-0.202D-01 0.102D+01
 Coeff:     -0.151D-06-0.971D-06-0.554D-04-0.199D-02-0.202D-01 0.102D+01
 Gap=     0.391 Goal=   None    Shift=    0.000
 RMSDP=2.17D-08 MaxDP=3.57D-07 DE=-2.83D-10 OVMax= 3.31D-07

 Cycle   7  Pass 1  IDiag  1:
 E= -40.5375616294101     Delta-E=       -0.000000000001 Rises=F Damp=F
 DIIS: error= 3.26D-09 at cycle   7 NSaved=   7.
 NSaved= 7 IEnMin= 7 EnMin= -40.5375616294101     IErMin= 7 ErrMin= 3.26D-09
 ErrMax= 3.26D-09  0.00D+00 EMaxC= 1.00D-01 BMatC= 5.08D-16 BMatP= 1.39D-12
 IDIUse=1 WtCom= 1.00D+00 WtEn= 0.00D+00
 Coeff-Com: -0.264D-07 0.158D-06 0.597D-05-0.198D-04-0.152D-02-0.316D-02
 Coeff-Com:  0.100D+01
 Coeff:     -0.264D-07 0.158D-06 0.597D-05-0.198D-04-0.152D-02-0.316D-02
 Coeff:      0.100D+01
 Gap=     0.391 Goal=   None    Shift=    0.000
 RMSDP=8.07D-10 MaxDP=1.84D-08 DE=-1.32D-12 OVMax= 1.19D-08

 SCF Done:  E(RB3LYP) =  -40.5375616294     A.U. after    7 cycles
            NFock=  7  Conv=0.81D-09     -V/T= 2.0052
 KE= 4.032624443549D+01 PE=-1.206405845198D+02 EE= 2.609026045759D+01
 Leave Link  502 at Fri Sep  6 16:35:13 2024, MaxMem=   536870912 cpu:               4.1 elap:               1.1
 (Enter /Users/asuyarger/Applications/G16/g16/l601.exe)
 Copying SCF densities to generalized density rwf, IOpCl= 0 IROHF=0.

 **********************************************************************

            Population analysis using the SCF density.

 **********************************************************************

 Orbital symmetries:
       Occupied  (A1) (A1) (T2) (T2) (T2)
       Virtual   (A1) (T2) (T2) (T2) (T2) (T2) (T2) (A1) (T2) (T2)
                 (T2) (E) (E) (T2) (T2) (T2) (A1) (T1) (T1) (T1)
                 (T2) (T2) (T2) (A1) (T2) (T2) (T2) (E) (E) (T2)
                 (T2) (T2) (A1) (T2) (T2) (T2) (T1) (T1) (T1) (E)
                 (E) (T2) (T2) (T2) (A1) (T2) (T2) (T2) (T1) (T1)
                 (T1) (E) (E) (T2) (T2) (T2) (E) (E) (A1) (T2)
                 (T2) (T2) (A1) (T1) (T1) (T1) (T2) (T2) (T2) (T2)
                 (T2) (T2) (T1) (T1) (T1) (T2) (T2) (T2) (E) (E)
                 (A1) (A1) (T2) (T2) (T2) (E) (E) (T2) (T2) (T2)
                 (T1) (T1) (T1) (T2) (T2) (T2) (T2) (T2) (T2) (T1)
                 (T1) (T1) (E) (E) (A1) (T2) (T2) (T2) (E) (E)
                 (T2) (T2) (T2) (T1) (T1) (T1) (T2) (T2) (T2) (A1)
                 (T1) (T1) (T1) (A1) (E) (E) (T2) (T2) (T2) (T2)
                 (T2) (T2) (A1)
 The electronic state is 1-A1.
 Alpha  occ. eigenvalues --  -10.14708  -0.70278  -0.39868  -0.39868  -0.39868
 Alpha virt. eigenvalues --   -0.00739   0.02608   0.02608   0.02608   0.08430
 Alpha virt. eigenvalues --    0.08430   0.08430   0.08722   0.13797   0.13797
 Alpha virt. eigenvalues --    0.13797   0.14931   0.14931   0.25526   0.25526
 Alpha virt. eigenvalues --    0.25526   0.26035   0.28711   0.28711   0.28711
 Alpha virt. eigenvalues --    0.31853   0.31853   0.31853   0.31919   0.36435
 Alpha virt. eigenvalues --    0.36435   0.36435   0.40356   0.40356   0.55438
 Alpha virt. eigenvalues --    0.55438   0.55438   0.63164   0.68744   0.68744
 Alpha virt. eigenvalues --    0.68744   0.76332   0.76332   0.76332   0.82375
 Alpha virt. eigenvalues --    0.82375   0.83039   0.83039   0.83039   0.83911
 Alpha virt. eigenvalues --    0.93727   0.93727   0.93727   0.95433   0.95433
 Alpha virt. eigenvalues --    0.95433   0.97537   0.97537   1.09335   1.09335
 Alpha virt. eigenvalues --    1.09335   1.13094   1.13094   1.15035   1.39598
 Alpha virt. eigenvalues --    1.39598   1.39598   1.42615   1.45045   1.45045
 Alpha virt. eigenvalues --    1.45045   1.54517   1.54517   1.54517   1.64485
 Alpha virt. eigenvalues --    1.64485   1.64485   1.73965   1.73965   1.73965
 Alpha virt. eigenvalues --    1.91376   1.91376   1.91376   2.02911   2.02911
 Alpha virt. eigenvalues --    2.34309   2.59595   2.93253   2.93253   2.93253
 Alpha virt. eigenvalues --    3.14889   3.14889   3.24241   3.24241   3.24241
 Alpha virt. eigenvalues --    3.27769   3.27769   3.27769   3.58283   3.58283
 Alpha virt. eigenvalues --    3.58283   3.74139   3.74139   3.74139   3.78113
 Alpha virt. eigenvalues --    3.78113   3.78113   3.82158   3.82158   3.98554
 Alpha virt. eigenvalues --    4.29092   4.29092   4.29092   4.43589   4.43589
 Alpha virt. eigenvalues --    4.48183   4.48183   4.48183   4.57966   4.57966
 Alpha virt. eigenvalues --    4.57966   4.92567   4.92567   4.92567   4.97096
 Alpha virt. eigenvalues --    5.32285   5.32285   5.32285   5.48653   5.57002
 Alpha virt. eigenvalues --    5.57002   5.93245   5.93245   5.93245   6.22258
 Alpha virt. eigenvalues --    6.22258   6.22258  17.18177
     Molecular Orbital Coefficients:
                           1         2         3         4         5
                        (A1)--O   (A1)--O   (T2)--O   (T2)--O   (T2)--O
     Eigenvalues --   -10.14708  -0.70278  -0.39868  -0.39868  -0.39868
   1 1   C  1S          0.97723  -0.18850   0.00000   0.00000   0.00000
   2        2S          0.01570   0.42222   0.00000   0.00000   0.00000
   3        3S          0.05394   0.10915   0.00000   0.00000   0.00000
   4        4S          0.01530   0.23909   0.00000   0.00000   0.00000
   5        5S          0.00207   0.00618   0.00000   0.00000   0.00000
   6        6PX         0.00000   0.00000   0.25528   0.00000   0.00000
   7        6PY         0.00000   0.00000   0.00000   0.25528   0.00000
   8        6PZ         0.00000   0.00000   0.00000   0.00000   0.25528
   9        7PX         0.00000   0.00000   0.28436   0.00000   0.00000
  10        7PY         0.00000   0.00000   0.00000   0.28436   0.00000
  11        7PZ         0.00000   0.00000   0.00000   0.00000   0.28436
  12        8PX         0.00000   0.00000   0.20884   0.00000   0.00000
  13        8PY         0.00000   0.00000   0.00000   0.20884   0.00000
  14        8PZ         0.00000   0.00000   0.00000   0.00000   0.20884
  15        9PX         0.00000   0.00000   0.01694   0.00000   0.00000
  16        9PY         0.00000   0.00000   0.00000   0.01694   0.00000
  17        9PZ         0.00000   0.00000   0.00000   0.00000   0.01694
  18       10D 0        0.00000   0.00000   0.00000   0.00000   0.00000
  19       10D+1        0.00000   0.00000   0.00000   0.01460   0.00000
  20       10D-1        0.00000   0.00000   0.01460   0.00000   0.00000
  21       10D+2        0.00000  -0.00000   0.00000   0.00000   0.00000
  22       10D-2        0.00000   0.00000   0.00000   0.00000   0.01460
  23       11D 0       -0.00000  -0.00000   0.00000   0.00000   0.00000
  24       11D+1        0.00000   0.00000   0.00000   0.01870   0.00000
  25       11D-1        0.00000   0.00000   0.01870   0.00000   0.00000
  26       11D+2       -0.00000   0.00000   0.00000   0.00000   0.00000
  27       11D-2        0.00000   0.00000   0.00000   0.00000   0.01870
  28       12D 0       -0.00000   0.00000   0.00000   0.00000   0.00000
  29       12D+1        0.00000   0.00000   0.00000   0.01696   0.00000
  30       12D-1        0.00000   0.00000   0.01696   0.00000   0.00000
  31       12D+2       -0.00000   0.00000   0.00000   0.00000   0.00000
  32       12D-2        0.00000   0.00000   0.00000   0.00000   0.01696
  33       13F 0        0.00000   0.00000   0.00000   0.00000   0.00007
  34       13F+1        0.00000   0.00000  -0.00004   0.00000   0.00000
  35       13F-1        0.00000   0.00000   0.00000  -0.00004   0.00000
  36       13F+2        0.00000   0.00000   0.00000   0.00000   0.00000
  37       13F-2        0.00278   0.00401   0.00000   0.00000   0.00000
  38       13F+3        0.00000   0.00000   0.00006   0.00000   0.00000
  39       13F-3        0.00000   0.00000   0.00000  -0.00006   0.00000
  40       14F 0        0.00000   0.00000   0.00000   0.00000  -0.00189
  41       14F+1        0.00000   0.00000   0.00116   0.00000   0.00000
  42       14F-1        0.00000   0.00000   0.00000   0.00116   0.00000
  43       14F+2        0.00000   0.00000   0.00000   0.00000   0.00000
  44       14F-2       -0.00394   0.00278   0.00000   0.00000   0.00000
  45       14F+3        0.00000   0.00000  -0.00149   0.00000   0.00000
  46       14F-3        0.00000   0.00000   0.00000   0.00149   0.00000
  47 2   H  1S         -0.00004   0.08751   0.10782   0.10782   0.10782
  48        2S         -0.00256   0.08466   0.13792   0.13792   0.13792
  49        3S         -0.00477   0.00323   0.00544   0.00544   0.00544
  50        4S         -0.00031  -0.00048  -0.00608  -0.00608  -0.00608
  51        5PX         0.00060  -0.00540  -0.00099  -0.00678  -0.00678
  52        5PY         0.00060  -0.00540  -0.00678  -0.00099  -0.00678
  53        5PZ         0.00060  -0.00540  -0.00678  -0.00678  -0.00099
  54        6PX         0.00311  -0.00086   0.00808  -0.00457  -0.00457
  55        6PY         0.00311  -0.00086  -0.00457   0.00808  -0.00457
  56        6PZ         0.00311  -0.00086  -0.00457  -0.00457   0.00808
  57        7PX         0.00192   0.00409   0.00895   0.00811   0.00811
  58        7PY         0.00192   0.00409   0.00811   0.00895   0.00811
  59        7PZ         0.00192   0.00409   0.00811   0.00811   0.00895
  60        8D 0       -0.00000   0.00000   0.00087   0.00087  -0.00174
  61        8D+1       -0.00089   0.00125   0.00050   0.00198   0.00050
  62        8D-1       -0.00089   0.00125   0.00198   0.00050   0.00050
  63        8D+2       -0.00000   0.00000  -0.00151   0.00151  -0.00000
  64        8D-2       -0.00089   0.00125   0.00050   0.00050   0.00198
  65        9D 0       -0.00000  -0.00000  -0.00011  -0.00011   0.00021
  66        9D+1       -0.00121  -0.00226  -0.00047  -0.00019  -0.00047
  67        9D-1       -0.00121  -0.00226  -0.00019  -0.00047  -0.00047
  68        9D+2       -0.00000   0.00000   0.00018  -0.00018   0.00000
  69        9D-2       -0.00121  -0.00226  -0.00047  -0.00047  -0.00019
  70 3   H  1S         -0.00004   0.08751  -0.10782  -0.10782   0.10782
  71        2S         -0.00256   0.08466  -0.13792  -0.13792   0.13792
  72        3S         -0.00477   0.00323  -0.00544  -0.00544   0.00544
  73        4S         -0.00031  -0.00048   0.00608   0.00608  -0.00608
  74        5PX        -0.00060   0.00540  -0.00099  -0.00678   0.00678
  75        5PY        -0.00060   0.00540  -0.00678  -0.00099   0.00678
  76        5PZ         0.00060  -0.00540   0.00678   0.00678  -0.00099
  77        6PX        -0.00311   0.00086   0.00808  -0.00457   0.00457
  78        6PY        -0.00311   0.00086  -0.00457   0.00808   0.00457
  79        6PZ         0.00311  -0.00086   0.00457   0.00457   0.00808
  80        7PX        -0.00192  -0.00409   0.00895   0.00811  -0.00811
  81        7PY        -0.00192  -0.00409   0.00811   0.00895  -0.00811
  82        7PZ         0.00192   0.00409  -0.00811  -0.00811   0.00895
  83        8D 0       -0.00000   0.00000  -0.00087  -0.00087  -0.00174
  84        8D+1        0.00089  -0.00125   0.00050   0.00198  -0.00050
  85        8D-1        0.00089  -0.00125   0.00198   0.00050  -0.00050
  86        8D+2       -0.00000   0.00000   0.00151  -0.00151  -0.00000
  87        8D-2       -0.00089   0.00125  -0.00050  -0.00050   0.00198
  88        9D 0       -0.00000  -0.00000   0.00011   0.00011   0.00021
  89        9D+1        0.00121   0.00226  -0.00047  -0.00019   0.00047
  90        9D-1        0.00121   0.00226  -0.00019  -0.00047   0.00047
  91        9D+2       -0.00000   0.00000  -0.00018   0.00018   0.00000
  92        9D-2       -0.00121  -0.00226   0.00047   0.00047  -0.00019
  93 4   H  1S         -0.00004   0.08751  -0.10782   0.10782  -0.10782
  94        2S         -0.00256   0.08466  -0.13792   0.13792  -0.13792
  95        3S         -0.00477   0.00323  -0.00544   0.00544  -0.00544
  96        4S         -0.00031  -0.00048   0.00608  -0.00608   0.00608
  97        5PX        -0.00060   0.00540  -0.00099   0.00678  -0.00678
  98        5PY         0.00060  -0.00540   0.00678  -0.00099   0.00678
  99        5PZ        -0.00060   0.00540  -0.00678   0.00678  -0.00099
 100        6PX        -0.00311   0.00086   0.00808   0.00457  -0.00457
 101        6PY         0.00311  -0.00086   0.00457   0.00808   0.00457
 102        6PZ        -0.00311   0.00086  -0.00457   0.00457   0.00808
 103        7PX        -0.00192  -0.00409   0.00895  -0.00811   0.00811
 104        7PY         0.00192   0.00409  -0.00811   0.00895  -0.00811
 105        7PZ        -0.00192  -0.00409   0.00811  -0.00811   0.00895
 106        8D 0       -0.00000   0.00000  -0.00087   0.00087   0.00174
 107        8D+1       -0.00089   0.00125  -0.00050   0.00198  -0.00050
 108        8D-1        0.00089  -0.00125   0.00198  -0.00050   0.00050
 109        8D+2       -0.00000   0.00000   0.00151   0.00151   0.00000
 110        8D-2        0.00089  -0.00125   0.00050  -0.00050   0.00198
 111        9D 0       -0.00000  -0.00000   0.00011  -0.00011  -0.00021
 112        9D+1       -0.00121  -0.00226   0.00047  -0.00019   0.00047
 113        9D-1        0.00121   0.00226  -0.00019   0.00047  -0.00047
 114        9D+2       -0.00000   0.00000  -0.00018  -0.00018  -0.00000
 115        9D-2        0.00121   0.00226  -0.00047   0.00047  -0.00019
 116 5   H  1S         -0.00004   0.08751   0.10782  -0.10782  -0.10782
 117        2S         -0.00256   0.08466   0.13792  -0.13792  -0.13792
 118        3S         -0.00477   0.00323   0.00544  -0.00544  -0.00544
 119        4S         -0.00031  -0.00048  -0.00608   0.00608   0.00608
 120        5PX         0.00060  -0.00540  -0.00099   0.00678   0.00678
 121        5PY        -0.00060   0.00540   0.00678  -0.00099  -0.00678
 122        5PZ        -0.00060   0.00540   0.00678  -0.00678  -0.00099
 123        6PX         0.00311  -0.00086   0.00808   0.00457   0.00457
 124        6PY        -0.00311   0.00086   0.00457   0.00808  -0.00457
 125        6PZ        -0.00311   0.00086   0.00457  -0.00457   0.00808
 126        7PX         0.00192   0.00409   0.00895  -0.00811  -0.00811
 127        7PY        -0.00192  -0.00409  -0.00811   0.00895   0.00811
 128        7PZ        -0.00192  -0.00409  -0.00811   0.00811   0.00895
 129        8D 0       -0.00000   0.00000   0.00087  -0.00087   0.00174
 130        8D+1        0.00089  -0.00125  -0.00050   0.00198   0.00050
 131        8D-1       -0.00089   0.00125   0.00198  -0.00050  -0.00050
 132        8D+2       -0.00000   0.00000  -0.00151  -0.00151   0.00000
 133        8D-2        0.00089  -0.00125  -0.00050   0.00050   0.00198
 134        9D 0       -0.00000  -0.00000  -0.00011   0.00011  -0.00021
 135        9D+1        0.00121   0.00226   0.00047  -0.00019  -0.00047
 136        9D-1       -0.00121  -0.00226  -0.00019   0.00047   0.00047
 137        9D+2       -0.00000   0.00000   0.00018   0.00018  -0.00000
 138        9D-2        0.00121   0.00226   0.00047  -0.00047  -0.00019
                           6         7         8         9        10
                        (A1)--V   (T2)--V   (T2)--V   (T2)--V   (T2)--V
     Eigenvalues --    -0.00739   0.02608   0.02608   0.02608   0.08430
   1 1   C  1S         -0.05627   0.00000   0.00000   0.00000   0.00000
   2        2S          0.14077   0.00000   0.00000   0.00000   0.00000
   3        3S          0.02730   0.00000   0.00000   0.00000   0.00000
   4        4S          1.78364   0.00000   0.00000   0.00000   0.00000
   5        5S          1.86730   0.00000   0.00000   0.00000   0.00000
   6        6PX         0.00000   0.00000   0.00000  -0.06305   0.00000
   7        6PY         0.00000  -0.06305   0.00000   0.00000   0.00000
   8        6PZ         0.00000   0.00000  -0.06305   0.00000  -0.02307
   9        7PX         0.00000   0.00000   0.00000  -0.17209   0.00000
  10        7PY         0.00000  -0.17209   0.00000   0.00000   0.00000
  11        7PZ         0.00000   0.00000  -0.17209   0.00000  -0.08857
  12        8PX         0.00000   0.00000   0.00000  -1.01256   0.00000
  13        8PY         0.00000  -1.01256   0.00000   0.00000   0.00000
  14        8PZ         0.00000   0.00000  -1.01256   0.00000   1.58846
  15        9PX         0.00000   0.00000   0.00000  -1.20232   0.00000
  16        9PY         0.00000  -1.20232   0.00000   0.00000   0.00000
  17        9PZ         0.00000   0.00000  -1.20232   0.00000   4.28711
  18       10D 0       -0.00000   0.00000   0.00000   0.00000   0.00000
  19       10D+1        0.00000  -0.00355   0.00000   0.00000   0.00000
  20       10D-1        0.00000   0.00000   0.00000  -0.00355   0.00000
  21       10D+2       -0.00000   0.00000   0.00000   0.00000   0.00000
  22       10D-2        0.00000   0.00000  -0.00355   0.00000  -0.01102
  23       11D 0        0.00000   0.00000   0.00000   0.00000   0.00000
  24       11D+1        0.00000  -0.08021   0.00000   0.00000   0.00000
  25       11D-1        0.00000   0.00000   0.00000  -0.08021   0.00000
  26       11D+2        0.00000   0.00000   0.00000   0.00000   0.00000
  27       11D-2        0.00000   0.00000  -0.08021   0.00000  -0.11288
  28       12D 0        0.00000   0.00000   0.00000   0.00000   0.00000
  29       12D+1        0.00000  -0.17191   0.00000   0.00000   0.00000
  30       12D-1        0.00000   0.00000   0.00000  -0.17191   0.00000
  31       12D+2        0.00000   0.00000   0.00000   0.00000   0.00000
  32       12D-2        0.00000   0.00000  -0.17191   0.00000   0.24493
  33       13F 0        0.00000   0.00000   0.00291   0.00000   0.00105
  34       13F+1        0.00000   0.00000   0.00000  -0.00178   0.00000
  35       13F-1        0.00000  -0.00178   0.00000   0.00000   0.00000
  36       13F+2        0.00000   0.00000  -0.00000   0.00000   0.00000
  37       13F-2        0.00465   0.00000   0.00000   0.00000   0.00000
  38       13F+3        0.00000   0.00000   0.00000   0.00230   0.00000
  39       13F-3        0.00000  -0.00230   0.00000   0.00000   0.00000
  40       14F 0        0.00000   0.00000   0.02195   0.00000   0.07158
  41       14F+1        0.00000   0.00000   0.00000  -0.01344   0.00000
  42       14F-1        0.00000  -0.01344   0.00000   0.00000   0.00000
  43       14F+2        0.00000   0.00000   0.00000   0.00000  -0.00000
  44       14F-2        0.04482   0.00000   0.00000   0.00000   0.00000
  45       14F+3        0.00000   0.00000   0.00000   0.01735   0.00000
  46       14F-3        0.00000  -0.01735   0.00000   0.00000   0.00000
  47 2   H  1S          0.00344  -0.01220  -0.01220  -0.01220  -0.02681
  48        2S         -0.13010   0.10064   0.10064   0.10064  -0.01669
  49        3S         -0.58907   1.01785   1.01785   1.01785  -1.04428
  50        4S         -0.53586   2.71233   2.71233   2.71233  -3.97673
  51        5PX        -0.00269   0.00188   0.00188   0.00034  -0.00225
  52        5PY        -0.00269   0.00034   0.00188   0.00188  -0.00225
  53        5PZ        -0.00269   0.00188   0.00034   0.00188   0.00659
  54        6PX         0.01528  -0.02064  -0.02064  -0.02387   0.00196
  55        6PY         0.01528  -0.02387  -0.02064  -0.02064   0.00196
  56        6PZ         0.01528  -0.02064  -0.02387  -0.02064  -0.06585
  57        7PX         0.03970  -0.16823  -0.16823  -0.10460  -0.00734
  58        7PY         0.03970  -0.10460  -0.16823  -0.16823  -0.00734
  59        7PZ         0.03970  -0.16823  -0.10460  -0.16823  -0.43041
  60        8D 0        0.00000  -0.00054   0.00107  -0.00054   0.00010
  61        8D+1       -0.00056   0.00056   0.00120   0.00120  -0.00047
  62        8D-1       -0.00056   0.00120   0.00120   0.00056  -0.00047
  63        8D+2        0.00000  -0.00093   0.00000   0.00093  -0.00000
  64        8D-2       -0.00056   0.00120   0.00056   0.00120  -0.00082
  65        9D 0        0.00000   0.00179  -0.00358   0.00179   0.03487
  66        9D+1        0.00254   0.00902   0.00768   0.00768   0.06113
  67        9D-1        0.00254   0.00768   0.00768   0.00902   0.06113
  68        9D+2        0.00000   0.00310  -0.00000  -0.00310  -0.00000
  69        9D-2        0.00254   0.00768   0.00902   0.00768  -0.01675
  70 3   H  1S          0.00344   0.01220  -0.01220   0.01220  -0.02681
  71        2S         -0.13010  -0.10064   0.10064  -0.10064  -0.01669
  72        3S         -0.58907  -1.01785   1.01785  -1.01785  -1.04428
  73        4S         -0.53586  -2.71233   2.71233  -2.71233  -3.97673
  74        5PX         0.00269   0.00188  -0.00188   0.00034   0.00225
  75        5PY         0.00269   0.00034  -0.00188   0.00188   0.00225
  76        5PZ        -0.00269  -0.00188   0.00034  -0.00188   0.00659
  77        6PX        -0.01528  -0.02064   0.02064  -0.02387  -0.00196
  78        6PY        -0.01528  -0.02387   0.02064  -0.02064  -0.00196
  79        6PZ         0.01528   0.02064  -0.02387   0.02064  -0.06585
  80        7PX        -0.03970  -0.16823   0.16823  -0.10460   0.00734
  81        7PY        -0.03970  -0.10460   0.16823  -0.16823   0.00734
  82        7PZ         0.03970   0.16823  -0.10460   0.16823  -0.43041
  83        8D 0        0.00000   0.00054   0.00107   0.00054   0.00010
  84        8D+1        0.00056   0.00056  -0.00120   0.00120   0.00047
  85        8D-1        0.00056   0.00120  -0.00120   0.00056   0.00047
  86        8D+2        0.00000   0.00093   0.00000  -0.00093  -0.00000
  87        8D-2       -0.00056  -0.00120   0.00056  -0.00120  -0.00082
  88        9D 0        0.00000  -0.00179  -0.00358  -0.00179   0.03487
  89        9D+1       -0.00254   0.00902  -0.00768   0.00768  -0.06113
  90        9D-1       -0.00254   0.00768  -0.00768   0.00902  -0.06113
  91        9D+2        0.00000  -0.00310  -0.00000   0.00310  -0.00000
  92        9D-2        0.00254  -0.00768   0.00902  -0.00768  -0.01675
  93 4   H  1S          0.00344  -0.01220   0.01220   0.01220   0.02681
  94        2S         -0.13010   0.10064  -0.10064  -0.10064   0.01669
  95        3S         -0.58907   1.01785  -1.01785  -1.01785   1.04428
  96        4S         -0.53586   2.71233  -2.71233  -2.71233   3.97673
  97        5PX         0.00269  -0.00188   0.00188   0.00034  -0.00225
  98        5PY        -0.00269   0.00034  -0.00188  -0.00188   0.00225
  99        5PZ         0.00269  -0.00188   0.00034   0.00188   0.00659
 100        6PX        -0.01528   0.02064  -0.02064  -0.02387   0.00196
 101        6PY         0.01528  -0.02387   0.02064   0.02064  -0.00196
 102        6PZ        -0.01528   0.02064  -0.02387  -0.02064  -0.06585
 103        7PX        -0.03970   0.16823  -0.16823  -0.10460  -0.00734
 104        7PY         0.03970  -0.10460   0.16823   0.16823   0.00734
 105        7PZ        -0.03970   0.16823  -0.10460  -0.16823  -0.43041
 106        8D 0        0.00000  -0.00054  -0.00107   0.00054  -0.00010
 107        8D+1       -0.00056   0.00056  -0.00120  -0.00120   0.00047
 108        8D-1        0.00056  -0.00120   0.00120   0.00056  -0.00047
 109        8D+2        0.00000  -0.00093  -0.00000  -0.00093   0.00000
 110        8D-2        0.00056  -0.00120   0.00056   0.00120  -0.00082
 111        9D 0        0.00000   0.00179   0.00358  -0.00179  -0.03487
 112        9D+1        0.00254   0.00902  -0.00768  -0.00768  -0.06113
 113        9D-1       -0.00254  -0.00768   0.00768   0.00902   0.06113
 114        9D+2        0.00000   0.00310   0.00000   0.00310   0.00000
 115        9D-2       -0.00254  -0.00768   0.00902   0.00768  -0.01675
 116 5   H  1S          0.00344   0.01220   0.01220  -0.01220   0.02681
 117        2S         -0.13010  -0.10064  -0.10064   0.10064   0.01669
 118        3S         -0.58907  -1.01785  -1.01785   1.01785   1.04428
 119        4S         -0.53586  -2.71233  -2.71233   2.71233   3.97673
 120        5PX        -0.00269  -0.00188  -0.00188   0.00034   0.00225
 121        5PY         0.00269   0.00034   0.00188  -0.00188  -0.00225
 122        5PZ         0.00269   0.00188   0.00034  -0.00188   0.00659
 123        6PX         0.01528   0.02064   0.02064  -0.02387  -0.00196
 124        6PY        -0.01528  -0.02387  -0.02064   0.02064   0.00196
 125        6PZ        -0.01528  -0.02064  -0.02387   0.02064  -0.06585
 126        7PX         0.03970   0.16823   0.16823  -0.10460   0.00734
 127        7PY        -0.03970  -0.10460  -0.16823   0.16823  -0.00734
 128        7PZ        -0.03970  -0.16823  -0.10460   0.16823  -0.43041
 129        8D 0        0.00000   0.00054  -0.00107  -0.00054  -0.00010
 130        8D+1        0.00056   0.00056   0.00120  -0.00120  -0.00047
 131        8D-1       -0.00056  -0.00120  -0.00120   0.00056   0.00047
 132        8D+2        0.00000   0.00093  -0.00000   0.00093   0.00000
 133        8D-2        0.00056   0.00120   0.00056  -0.00120  -0.00082
 134        9D 0        0.00000  -0.00179   0.00358   0.00179  -0.03487
 135        9D+1       -0.00254   0.00902   0.00768  -0.00768   0.06113
 136        9D-1        0.00254  -0.00768  -0.00768   0.00902  -0.06113
 137        9D+2        0.00000  -0.00310   0.00000  -0.00310   0.00000
 138        9D-2       -0.00254   0.00768   0.00902  -0.00768  -0.01675
                          11        12        13        14        15
                        (T2)--V   (T2)--V   (A1)--V   (T2)--V   (T2)--V
     Eigenvalues --     0.08430   0.08430   0.08722   0.13797   0.13797
   1 1   C  1S          0.00000   0.00000   0.07128   0.00000   0.00000
   2        2S          0.00000   0.00000  -0.18093   0.00000   0.00000
   3        3S          0.00000   0.00000  -0.12442   0.00000   0.00000
   4        4S          0.00000   0.00000   7.78528   0.00000   0.00000
   5        5S          0.00000   0.00000   8.43351   0.00000   0.00000
   6        6PX         0.00000  -0.02307   0.00000   0.00000   0.17005
   7        6PY        -0.02307   0.00000   0.00000   0.17005   0.00000
   8        6PZ         0.00000   0.00000   0.00000   0.00000   0.00000
   9        7PX         0.00000  -0.08857   0.00000   0.00000  -0.24603
  10        7PY        -0.08857   0.00000   0.00000  -0.24603   0.00000
  11        7PZ         0.00000   0.00000   0.00000   0.00000   0.00000
  12        8PX         0.00000   1.58846   0.00000   0.00000  -3.46001
  13        8PY         1.58846   0.00000   0.00000  -3.46001   0.00000
  14        8PZ         0.00000   0.00000   0.00000   0.00000   0.00000
  15        9PX         0.00000   4.28711   0.00000   0.00000  -2.07441
  16        9PY         4.28711   0.00000   0.00000  -2.07441   0.00000
  17        9PZ         0.00000   0.00000   0.00000   0.00000   0.00000
  18       10D 0        0.00000   0.00000  -0.00000   0.00000   0.00000
  19       10D+1       -0.01102   0.00000   0.00000  -0.02267   0.00000
  20       10D-1        0.00000  -0.01102   0.00000   0.00000  -0.02267
  21       10D+2        0.00000   0.00000  -0.00000   0.00000   0.00000
  22       10D-2        0.00000   0.00000   0.00000   0.00000   0.00000
  23       11D 0        0.00000   0.00000   0.00000   0.00000   0.00000
  24       11D+1       -0.11288   0.00000   0.00000  -0.45732   0.00000
  25       11D-1        0.00000  -0.11288   0.00000   0.00000  -0.45732
  26       11D+2        0.00000   0.00000   0.00000   0.00000   0.00000
  27       11D-2        0.00000   0.00000   0.00000   0.00000   0.00000
  28       12D 0        0.00000   0.00000   0.00000   0.00000   0.00000
  29       12D+1        0.24493   0.00000   0.00000  -0.86063   0.00000
  30       12D-1        0.00000   0.24493   0.00000   0.00000  -0.86063
  31       12D+2        0.00000   0.00000   0.00000   0.00000   0.00000
  32       12D-2        0.00000   0.00000   0.00000   0.00000   0.00000
  33       13F 0        0.00000   0.00000   0.00000   0.00000   0.00000
  34       13F+1        0.00000  -0.00064   0.00000   0.00000  -0.00917
  35       13F-1       -0.00064   0.00000   0.00000  -0.00917   0.00000
  36       13F+2        0.00000   0.00000   0.00000   0.00000   0.00000
  37       13F-2        0.00000   0.00000   0.02307   0.00000   0.00000
  38       13F+3        0.00000   0.00083   0.00000   0.00000   0.01184
  39       13F-3       -0.00083   0.00000   0.00000  -0.01184   0.00000
  40       14F 0        0.00000   0.00000   0.00000   0.00000   0.00000
  41       14F+1        0.00000  -0.04383   0.00000   0.00000  -0.08610
  42       14F-1       -0.04383   0.00000   0.00000  -0.08610   0.00000
  43       14F+2        0.00000   0.00000   0.00000   0.00000   0.00000
  44       14F-2        0.00000   0.00000   0.22246   0.00000   0.00000
  45       14F+3        0.00000   0.05659   0.00000   0.00000   0.11115
  46       14F-3       -0.05659   0.00000   0.00000  -0.11115   0.00000
  47 2   H  1S         -0.02681  -0.02681   0.01279  -0.03087  -0.03087
  48        2S         -0.01669  -0.01669  -0.65862   0.52221   0.52221
  49        3S         -1.04428  -1.04428  -2.59808   4.34180   4.34180
  50        4S         -3.97673  -3.97673  -1.18617   2.74604   2.74604
  51        5PX        -0.00225   0.00659   0.00389  -0.00813  -0.00142
  52        5PY         0.00659  -0.00225   0.00389  -0.00142  -0.00813
  53        5PZ        -0.00225  -0.00225   0.00389  -0.00813  -0.00813
  54        6PX         0.00196  -0.06585   0.13313  -0.12800  -0.15129
  55        6PY        -0.06585   0.00196   0.13313  -0.15129  -0.12800
  56        6PZ         0.00196   0.00196   0.13313  -0.12800  -0.12800
  57        7PX        -0.00734  -0.43041   0.38300  -0.99621  -1.01094
  58        7PY        -0.43041  -0.00734   0.38300  -1.01094  -0.99621
  59        7PZ        -0.00734  -0.00734   0.38300  -0.99621  -0.99621
  60        8D 0       -0.00005  -0.00005   0.00000  -0.00023  -0.00023
  61        8D+1       -0.00082  -0.00047  -0.00713   0.00539   0.00563
  62        8D-1       -0.00047  -0.00082  -0.00713   0.00563   0.00539
  63        8D+2       -0.00008   0.00008   0.00000  -0.00041   0.00041
  64        8D-2       -0.00047  -0.00047  -0.00713   0.00563   0.00563
  65        9D 0       -0.01743  -0.01743   0.00000   0.00362   0.00362
  66        9D+1       -0.01675   0.06113   0.00619   0.02423   0.05440
  67        9D-1        0.06113  -0.01675   0.00619   0.05440   0.02423
  68        9D+2       -0.03019   0.03019   0.00000   0.00627  -0.00627
  69        9D-2        0.06113   0.06113   0.00619   0.05440   0.05440
  70 3   H  1S          0.02681   0.02681   0.01279   0.03087   0.03087
  71        2S          0.01669   0.01669  -0.65862  -0.52221  -0.52221
  72        3S          1.04428   1.04428  -2.59808  -4.34180  -4.34180
  73        4S          3.97673   3.97673  -1.18617  -2.74604  -2.74604
  74        5PX        -0.00225   0.00659  -0.00389  -0.00813  -0.00142
  75        5PY         0.00659  -0.00225  -0.00389  -0.00142  -0.00813
  76        5PZ         0.00225   0.00225   0.00389   0.00813   0.00813
  77        6PX         0.00196  -0.06585  -0.13313  -0.12800  -0.15129
  78        6PY        -0.06585   0.00196  -0.13313  -0.15129  -0.12800
  79        6PZ        -0.00196  -0.00196   0.13313   0.12800   0.12800
  80        7PX        -0.00734  -0.43041  -0.38300  -0.99621  -1.01094
  81        7PY        -0.43041  -0.00734  -0.38300  -1.01094  -0.99621
  82        7PZ         0.00734   0.00734   0.38300   0.99621   0.99621
  83        8D 0        0.00005   0.00005   0.00000   0.00023   0.00023
  84        8D+1       -0.00082  -0.00047   0.00713   0.00539   0.00563
  85        8D-1       -0.00047  -0.00082   0.00713   0.00563   0.00539
  86        8D+2        0.00008  -0.00008   0.00000   0.00041  -0.00041
  87        8D-2        0.00047   0.00047  -0.00713  -0.00563  -0.00563
  88        9D 0        0.01743   0.01743   0.00000  -0.00362  -0.00362
  89        9D+1       -0.01675   0.06113  -0.00619   0.02423   0.05440
  90        9D-1        0.06113  -0.01675  -0.00619   0.05440   0.02423
  91        9D+2        0.03019  -0.03019   0.00000  -0.00627   0.00627
  92        9D-2       -0.06113  -0.06113   0.00619  -0.05440  -0.05440
  93 4   H  1S         -0.02681   0.02681   0.01279  -0.03087   0.03087
  94        2S         -0.01669   0.01669  -0.65862   0.52221  -0.52221
  95        3S         -1.04428   1.04428  -2.59808   4.34180  -4.34180
  96        4S         -3.97673   3.97673  -1.18617   2.74604  -2.74604
  97        5PX         0.00225   0.00659  -0.00389   0.00813  -0.00142
  98        5PY         0.00659   0.00225   0.00389  -0.00142   0.00813
  99        5PZ         0.00225  -0.00225  -0.00389   0.00813  -0.00813
 100        6PX        -0.00196  -0.06585  -0.13313   0.12800  -0.15129
 101        6PY        -0.06585  -0.00196   0.13313  -0.15129   0.12800
 102        6PZ        -0.00196   0.00196  -0.13313   0.12800  -0.12800
 103        7PX         0.00734  -0.43041  -0.38300   0.99621  -1.01094
 104        7PY        -0.43041   0.00734   0.38300  -1.01094   0.99621
 105        7PZ         0.00734  -0.00734  -0.38300   0.99621  -0.99621
 106        8D 0       -0.00005   0.00005   0.00000  -0.00023   0.00023
 107        8D+1       -0.00082   0.00047  -0.00713   0.00539  -0.00563
 108        8D-1        0.00047  -0.00082   0.00713  -0.00563   0.00539
 109        8D+2       -0.00008  -0.00008   0.00000  -0.00041  -0.00041
 110        8D-2        0.00047  -0.00047   0.00713  -0.00563   0.00563
 111        9D 0       -0.01743   0.01743   0.00000   0.00362  -0.00362
 112        9D+1       -0.01675  -0.06113   0.00619   0.02423  -0.05440
 113        9D-1       -0.06113  -0.01675  -0.00619  -0.05440   0.02423
 114        9D+2       -0.03019  -0.03019   0.00000   0.00627   0.00627
 115        9D-2       -0.06113   0.06113  -0.00619  -0.05440   0.05440
 116 5   H  1S          0.02681  -0.02681   0.01279   0.03087  -0.03087
 117        2S          0.01669  -0.01669  -0.65862  -0.52221   0.52221
 118        3S          1.04428  -1.04428  -2.59808  -4.34180   4.34180
 119        4S          3.97673  -3.97673  -1.18617  -2.74604   2.74604
 120        5PX         0.00225   0.00659   0.00389   0.00813  -0.00142
 121        5PY         0.00659   0.00225  -0.00389  -0.00142   0.00813
 122        5PZ        -0.00225   0.00225  -0.00389  -0.00813   0.00813
 123        6PX        -0.00196  -0.06585   0.13313   0.12800  -0.15129
 124        6PY        -0.06585  -0.00196  -0.13313  -0.15129   0.12800
 125        6PZ         0.00196  -0.00196  -0.13313  -0.12800   0.12800
 126        7PX         0.00734  -0.43041   0.38300   0.99621  -1.01094
 127        7PY        -0.43041   0.00734  -0.38300  -1.01094   0.99621
 128        7PZ        -0.00734   0.00734  -0.38300  -0.99621   0.99621
 129        8D 0        0.00005  -0.00005   0.00000   0.00023  -0.00023
 130        8D+1       -0.00082   0.00047   0.00713   0.00539  -0.00563
 131        8D-1        0.00047  -0.00082  -0.00713  -0.00563   0.00539
 132        8D+2        0.00008   0.00008   0.00000   0.00041   0.00041
 133        8D-2       -0.00047   0.00047   0.00713   0.00563  -0.00563
 134        9D 0        0.01743  -0.01743   0.00000  -0.00362   0.00362
 135        9D+1       -0.01675  -0.06113  -0.00619   0.02423  -0.05440
 136        9D-1       -0.06113  -0.01675   0.00619  -0.05440   0.02423
 137        9D+2        0.03019   0.03019   0.00000  -0.00627  -0.00627
 138        9D-2        0.06113  -0.06113  -0.00619   0.05440  -0.05440
                          16        17        18        19        20
                        (T2)--V   (E)--V    (E)--V    (T2)--V   (T2)--V
     Eigenvalues --     0.13797   0.14931   0.14931   0.25526   0.25526
   1 1   C  1S          0.00000  -0.00000  -0.00000   0.00000   0.00000
   2        2S          0.00000   0.00000   0.00000   0.00000   0.00000
   3        3S          0.00000  -0.00000  -0.00000   0.00000   0.00000
   4        4S          0.00000   0.00000   0.00000   0.00000   0.00000
   5        5S          0.00000   0.00000   0.00000   0.00000   0.00000
   6        6PX         0.00000   0.00000   0.00000   0.00000   0.00000
   7        6PY         0.00000   0.00000   0.00000   0.00000   0.07815
   8        6PZ         0.17005   0.00000   0.00000   0.07815   0.00000
   9        7PX         0.00000   0.00000   0.00000   0.00000   0.00000
  10        7PY         0.00000   0.00000   0.00000   0.00000  -0.09333
  11        7PZ        -0.24603   0.00000   0.00000  -0.09333   0.00000
  12        8PX         0.00000   0.00000   0.00000   0.00000   0.00000
  13        8PY         0.00000   0.00000   0.00000   0.00000   3.89188
  14        8PZ        -3.46001   0.00000   0.00000   3.89188   0.00000
  15        9PX         0.00000   0.00000   0.00000   0.00000   0.00000
  16        9PY         0.00000   0.00000   0.00000   0.00000   4.57376
  17        9PZ        -2.07441   0.00000   0.00000   4.57376   0.00000
  18       10D 0        0.00000  -0.00379  -0.02550   0.00000   0.00000
  19       10D+1        0.00000   0.00000   0.00000   0.00000   0.01308
  20       10D-1        0.00000   0.00000   0.00000   0.00000   0.00000
  21       10D+2        0.00000  -0.02550   0.00379   0.00000   0.00000
  22       10D-2       -0.02267   0.00000   0.00000   0.01308   0.00000
  23       11D 0        0.00000   0.04914   0.33102   0.00000   0.00000
  24       11D+1        0.00000   0.00000   0.00000   0.00000  -0.07859
  25       11D-1        0.00000   0.00000   0.00000   0.00000   0.00000
  26       11D+2        0.00000   0.33102  -0.04914   0.00000   0.00000
  27       11D-2       -0.45732   0.00000   0.00000  -0.07859   0.00000
  28       12D 0        0.00000   0.47311   3.18687   0.00000   0.00000
  29       12D+1        0.00000   0.00000   0.00000   0.00000   1.05802
  30       12D-1        0.00000   0.00000   0.00000   0.00000   0.00000
  31       12D+2        0.00000   3.18687  -0.47311   0.00000   0.00000
  32       12D-2       -0.86063   0.00000   0.00000   1.05802   0.00000
  33       13F 0        0.01498   0.00000   0.00000  -0.00243   0.00000
  34       13F+1        0.00000   0.00000   0.00000   0.00000   0.00000
  35       13F-1        0.00000   0.00000   0.00000   0.00000   0.00149
  36       13F+2       -0.00000   0.00000   0.00000   0.00000   0.00000
  37       13F-2        0.00000   0.00000   0.00000   0.00000   0.00000
  38       13F+3        0.00000   0.00000   0.00000   0.00000   0.00000
  39       13F-3        0.00000   0.00000   0.00000   0.00000   0.00192
  40       14F 0        0.14060   0.00000   0.00000   0.10140   0.00000
  41       14F+1        0.00000   0.00000   0.00000   0.00000   0.00000
  42       14F-1        0.00000   0.00000   0.00000   0.00000  -0.06210
  43       14F+2       -0.00000   0.00000   0.00000   0.00000   0.00000
  44       14F-2        0.00000   0.00000   0.00000   0.00000   0.00000
  45       14F+3        0.00000   0.00000   0.00000   0.00000   0.00000
  46       14F-3        0.00000   0.00000   0.00000   0.00000  -0.08016
  47 2   H  1S         -0.03087   0.00000   0.00000   0.04748   0.04748
  48        2S          0.52221  -0.00000  -0.00000   0.03509   0.03509
  49        3S          4.34180  -0.00000  -0.00000  -1.03354  -1.03354
  50        4S          2.74604  -0.00000   0.00000  -2.76324  -2.76324
  51        5PX        -0.00813   0.00021  -0.00016  -0.00132  -0.00132
  52        5PY        -0.00813  -0.00024  -0.00010  -0.00132   0.00579
  53        5PZ        -0.00142   0.00004   0.00026   0.00579  -0.00132
  54        6PX        -0.12800  -0.09918   0.07874  -0.01111  -0.01111
  55        6PY        -0.12800   0.11778   0.04653  -0.01111  -0.17797
  56        6PZ        -0.15129  -0.01860  -0.12526  -0.17797  -0.01111
  57        7PX        -0.99621  -1.55731   1.23627  -0.19240  -0.19240
  58        7PY        -0.99621   1.84929   0.73053  -0.19240  -1.76389
  59        7PZ        -1.01094  -0.29199  -1.96680  -1.76389  -0.19240
  60        8D 0        0.00047   0.00046   0.00307  -0.00128   0.00064
  61        8D+1        0.00563   0.00296   0.00117  -0.00103   0.00364
  62        8D-1        0.00563  -0.00249   0.00198  -0.00103  -0.00103
  63        8D+2        0.00000   0.00307  -0.00046  -0.00000   0.00111
  64        8D-2        0.00539  -0.00047  -0.00314   0.00364  -0.00103
  65        9D 0       -0.00723   0.01529   0.10303   0.07696  -0.03848
  66        9D+1        0.05440   0.09942   0.03928   0.16302  -0.00366
  67        9D-1        0.05440  -0.08372   0.06646   0.16302   0.16302
  68        9D+2       -0.00000   0.10303  -0.01529   0.00000  -0.06665
  69        9D-2        0.02423  -0.01570  -0.10574  -0.00366   0.16302
  70 3   H  1S         -0.03087   0.00000   0.00000   0.04748  -0.04748
  71        2S          0.52221  -0.00000  -0.00000   0.03509  -0.03509
  72        3S          4.34180  -0.00000  -0.00000  -1.03354   1.03354
  73        4S          2.74604  -0.00000   0.00000  -2.76324   2.76324
  74        5PX         0.00813  -0.00021   0.00016   0.00132  -0.00132
  75        5PY         0.00813   0.00024   0.00010   0.00132   0.00579
  76        5PZ        -0.00142   0.00004   0.00026   0.00579   0.00132
  77        6PX         0.12800   0.09918  -0.07874   0.01111  -0.01111
  78        6PY         0.12800  -0.11778  -0.04653   0.01111  -0.17797
  79        6PZ        -0.15129  -0.01860  -0.12526  -0.17797   0.01111
  80        7PX         0.99621   1.55731  -1.23627   0.19240  -0.19240
  81        7PY         0.99621  -1.84929  -0.73053   0.19240  -1.76389
  82        7PZ        -1.01094  -0.29199  -1.96680  -1.76389   0.19240
  83        8D 0        0.00047   0.00046   0.00307  -0.00128  -0.00064
  84        8D+1       -0.00563  -0.00296  -0.00117   0.00103   0.00364
  85        8D-1       -0.00563   0.00249  -0.00198   0.00103  -0.00103
  86        8D+2        0.00000   0.00307  -0.00046  -0.00000  -0.00111
  87        8D-2        0.00539  -0.00047  -0.00314   0.00364   0.00103
  88        9D 0       -0.00723   0.01529   0.10303   0.07696   0.03848
  89        9D+1       -0.05440  -0.09942  -0.03928  -0.16302  -0.00366
  90        9D-1       -0.05440   0.08372  -0.06646  -0.16302   0.16302
  91        9D+2       -0.00000   0.10303  -0.01529   0.00000   0.06665
  92        9D-2        0.02423  -0.01570  -0.10574  -0.00366  -0.16302
  93 4   H  1S          0.03087   0.00000   0.00000  -0.04748   0.04748
  94        2S         -0.52221  -0.00000  -0.00000  -0.03509   0.03509
  95        3S         -4.34180  -0.00000  -0.00000   1.03354  -1.03354
  96        4S         -2.74604  -0.00000   0.00000   2.76324  -2.76324
  97        5PX        -0.00813  -0.00021   0.00016  -0.00132   0.00132
  98        5PY         0.00813  -0.00024  -0.00010   0.00132   0.00579
  99        5PZ        -0.00142  -0.00004  -0.00026   0.00579   0.00132
 100        6PX        -0.12800   0.09918  -0.07874  -0.01111   0.01111
 101        6PY         0.12800   0.11778   0.04653   0.01111  -0.17797
 102        6PZ        -0.15129   0.01860   0.12526  -0.17797   0.01111
 103        7PX        -0.99621   1.55731  -1.23627  -0.19240   0.19240
 104        7PY         0.99621   1.84929   0.73053   0.19240  -1.76389
 105        7PZ        -1.01094   0.29199   1.96680  -1.76389   0.19240
 106        8D 0       -0.00047   0.00046   0.00307   0.00128   0.00064
 107        8D+1       -0.00563   0.00296   0.00117   0.00103   0.00364
 108        8D-1        0.00563   0.00249  -0.00198  -0.00103   0.00103
 109        8D+2       -0.00000   0.00307  -0.00046   0.00000   0.00111
 110        8D-2        0.00539   0.00047   0.00314   0.00364   0.00103
 111        9D 0        0.00723   0.01529   0.10303  -0.07696  -0.03848
 112        9D+1       -0.05440   0.09942   0.03928  -0.16302  -0.00366
 113        9D-1        0.05440   0.08372  -0.06646   0.16302  -0.16302
 114        9D+2        0.00000   0.10303  -0.01529  -0.00000  -0.06665
 115        9D-2        0.02423   0.01570   0.10574  -0.00366  -0.16302
 116 5   H  1S          0.03087   0.00000   0.00000  -0.04748  -0.04748
 117        2S         -0.52221  -0.00000  -0.00000  -0.03509  -0.03509
 118        3S         -4.34180  -0.00000  -0.00000   1.03354   1.03354
 119        4S         -2.74604  -0.00000   0.00000   2.76324   2.76324
 120        5PX         0.00813   0.00021  -0.00016   0.00132   0.00132
 121        5PY        -0.00813   0.00024   0.00010  -0.00132   0.00579
 122        5PZ        -0.00142  -0.00004  -0.00026   0.00579  -0.00132
 123        6PX         0.12800  -0.09918   0.07874   0.01111   0.01111
 124        6PY        -0.12800  -0.11778  -0.04653  -0.01111  -0.17797
 125        6PZ        -0.15129   0.01860   0.12526  -0.17797  -0.01111
 126        7PX         0.99621  -1.55731   1.23627   0.19240   0.19240
 127        7PY        -0.99621  -1.84929  -0.73053  -0.19240  -1.76389
 128        7PZ        -1.01094   0.29199   1.96680  -1.76389  -0.19240
 129        8D 0       -0.00047   0.00046   0.00307   0.00128  -0.00064
 130        8D+1        0.00563  -0.00296  -0.00117  -0.00103   0.00364
 131        8D-1       -0.00563  -0.00249   0.00198   0.00103   0.00103
 132        8D+2       -0.00000   0.00307  -0.00046   0.00000  -0.00111
 133        8D-2        0.00539   0.00047   0.00314   0.00364  -0.00103
 134        9D 0        0.00723   0.01529   0.10303  -0.07696   0.03848
 135        9D+1        0.05440  -0.09942  -0.03928   0.16302  -0.00366
 136        9D-1       -0.05440  -0.08372   0.06646  -0.16302  -0.16302
 137        9D+2        0.00000   0.10303  -0.01529  -0.00000   0.06665
 138        9D-2        0.02423   0.01570   0.10574  -0.00366   0.16302
                          21        22        23        24        25
                        (T2)--V   (A1)--V   (T1)--V   (T1)--V   (T1)--V
     Eigenvalues --     0.25526   0.26035   0.28711   0.28711   0.28711
   1 1   C  1S          0.00000  -0.06815   0.00000   0.00000   0.00000
   2        2S          0.00000   0.09747   0.00000   0.00000   0.00000
   3        3S          0.00000  -0.07686   0.00000   0.00000   0.00000
   4        4S          0.00000   4.02365   0.00000   0.00000   0.00000
   5        5S          0.00000   8.87314   0.00000   0.00000   0.00000
   6        6PX         0.07815   0.00000   0.00000   0.00000   0.00000
   7        6PY         0.00000   0.00000   0.00000   0.00000   0.00000
   8        6PZ         0.00000   0.00000   0.00000   0.00000  -0.00000
   9        7PX        -0.09333   0.00000   0.00000   0.00000   0.00000
  10        7PY         0.00000   0.00000   0.00000   0.00000   0.00000
  11        7PZ         0.00000   0.00000   0.00000   0.00000  -0.00000
  12        8PX         3.89188   0.00000   0.00000   0.00000   0.00000
  13        8PY         0.00000   0.00000   0.00000   0.00000   0.00000
  14        8PZ         0.00000   0.00000   0.00000   0.00000  -0.00000
  15        9PX         4.57376   0.00000   0.00000   0.00000   0.00000
  16        9PY         0.00000   0.00000   0.00000   0.00000   0.00000
  17        9PZ         0.00000   0.00000   0.00000   0.00000   0.00000
  18       10D 0        0.00000  -0.00000   0.00000   0.00000   0.00000
  19       10D+1        0.00000   0.00000   0.00000   0.00000   0.00000
  20       10D-1        0.01308   0.00000   0.00000   0.00000   0.00000
  21       10D+2        0.00000   0.00000   0.00000   0.00000   0.00000
  22       10D-2        0.00000   0.00000   0.00000   0.00000   0.00000
  23       11D 0        0.00000   0.00000   0.00000   0.00000   0.00000
  24       11D+1        0.00000   0.00000   0.00000   0.00000   0.00000
  25       11D-1       -0.07859   0.00000   0.00000   0.00000   0.00000
  26       11D+2        0.00000   0.00000   0.00000   0.00000   0.00000
  27       11D-2        0.00000   0.00000   0.00000   0.00000  -0.00000
  28       12D 0        0.00000  -0.00000   0.00000   0.00000   0.00000
  29       12D+1        0.00000   0.00000   0.00000   0.00000   0.00000
  30       12D-1        1.05802   0.00000   0.00000   0.00000   0.00000
  31       12D+2        0.00000   0.00000   0.00000   0.00000   0.00000
  32       12D-2        0.00000   0.00000   0.00000   0.00000   0.00000
  33       13F 0        0.00000   0.00000   0.00000   0.00000   0.00000
  34       13F+1        0.00149   0.00000   0.00000  -0.00548   0.00000
  35       13F-1        0.00000   0.00000  -0.00548   0.00000   0.00000
  36       13F+2        0.00000   0.00000   0.00000   0.00000   0.00693
  37       13F-2        0.00000   0.01870   0.00000   0.00000   0.00000
  38       13F+3       -0.00192   0.00000   0.00000  -0.00424   0.00000
  39       13F-3        0.00000   0.00000   0.00424   0.00000   0.00000
  40       14F 0        0.00000   0.00000   0.00000   0.00000   0.00000
  41       14F+1       -0.06210   0.00000   0.00000   0.25443   0.00000
  42       14F-1        0.00000   0.00000   0.25443   0.00000   0.00000
  43       14F+2        0.00000   0.00000   0.00000   0.00000  -0.32183
  44       14F-2        0.00000   0.26658   0.00000   0.00000   0.00000
  45       14F+3        0.08016   0.00000   0.00000   0.19708   0.00000
  46       14F-3        0.00000   0.00000  -0.19708   0.00000   0.00000
  47 2   H  1S          0.04748  -0.03112  -0.00000  -0.00000   0.00000
  48        2S          0.03509  -0.76232  -0.00000  -0.00000   0.00000
  49        3S         -1.03354  -2.95450  -0.00000  -0.00000   0.00000
  50        4S         -2.76324  -0.66581  -0.00000  -0.00000   0.00000
  51        5PX         0.00579  -0.00348  -0.00608   0.00000  -0.00608
  52        5PY        -0.00132  -0.00348   0.00000  -0.00608   0.00608
  53        5PZ        -0.00132  -0.00348   0.00608   0.00608  -0.00000
  54        6PX        -0.17797   0.10875   0.15123   0.00000   0.15123
  55        6PY        -0.01111   0.10875   0.00000   0.15123  -0.15123
  56        6PZ        -0.01111   0.10875  -0.15123  -0.15123  -0.00000
  57        7PX        -1.76389  -0.39150   1.47460   0.00000   1.47460
  58        7PY        -0.19240  -0.39150   0.00000   1.47460  -1.47460
  59        7PZ        -0.19240  -0.39150  -1.47460  -1.47460  -0.00000
  60        8D 0        0.00064   0.00000  -0.00123  -0.00123   0.00000
  61        8D+1       -0.00103  -0.00925  -0.00000  -0.00542   0.00542
  62        8D-1        0.00364  -0.00925  -0.00542  -0.00000  -0.00542
  63        8D+2       -0.00111   0.00000   0.00071  -0.00071   0.00142
  64        8D-2       -0.00103  -0.00925   0.00542   0.00542   0.00000
  65        9D 0       -0.03848   0.00000   0.20252   0.20252  -0.00000
  66        9D+1        0.16302   0.06359  -0.00000   0.12167  -0.12167
  67        9D-1       -0.00366   0.06359   0.12167  -0.00000   0.12167
  68        9D+2        0.06665   0.00000  -0.11693   0.11693  -0.23385
  69        9D-2        0.16302   0.06359  -0.12167  -0.12167   0.00000
  70 3   H  1S         -0.04748  -0.03112   0.00000   0.00000   0.00000
  71        2S         -0.03509  -0.76232   0.00000   0.00000   0.00000
  72        3S          1.03354  -2.95450   0.00000   0.00000   0.00000
  73        4S          2.76324  -0.66581   0.00000   0.00000   0.00000
  74        5PX         0.00579   0.00348  -0.00608   0.00000   0.00608
  75        5PY        -0.00132   0.00348   0.00000  -0.00608  -0.00608
  76        5PZ         0.00132  -0.00348  -0.00608  -0.00608  -0.00000
  77        6PX        -0.17797  -0.10875   0.15123   0.00000  -0.15123
  78        6PY        -0.01111  -0.10875   0.00000   0.15123   0.15123
  79        6PZ         0.01111   0.10875   0.15123   0.15123  -0.00000
  80        7PX        -1.76389   0.39150   1.47460   0.00000  -1.47460
  81        7PY        -0.19240   0.39150   0.00000   1.47460   1.47460
  82        7PZ         0.19240  -0.39150   1.47460   1.47460  -0.00000
  83        8D 0       -0.00064   0.00000   0.00123   0.00123   0.00000
  84        8D+1       -0.00103   0.00925  -0.00000  -0.00542  -0.00542
  85        8D-1        0.00364   0.00925  -0.00542  -0.00000   0.00542
  86        8D+2        0.00111   0.00000  -0.00071   0.00071   0.00142
  87        8D-2        0.00103  -0.00925  -0.00542  -0.00542   0.00000
  88        9D 0        0.03848   0.00000  -0.20252  -0.20252  -0.00000
  89        9D+1        0.16302  -0.06359  -0.00000   0.12167   0.12167
  90        9D-1       -0.00366  -0.06359   0.12167  -0.00000  -0.12167
  91        9D+2       -0.06665   0.00000   0.11693  -0.11693  -0.23385
  92        9D-2       -0.16302   0.06359   0.12167   0.12167   0.00000
  93 4   H  1S         -0.04748  -0.03112  -0.00000   0.00000  -0.00000
  94        2S         -0.03509  -0.76232  -0.00000   0.00000  -0.00000
  95        3S          1.03354  -2.95450  -0.00000   0.00000  -0.00000
  96        4S          2.76324  -0.66581  -0.00000   0.00000  -0.00000
  97        5PX         0.00579   0.00348   0.00608   0.00000  -0.00608
  98        5PY         0.00132  -0.00348   0.00000   0.00608  -0.00608
  99        5PZ        -0.00132   0.00348  -0.00608   0.00608  -0.00000
 100        6PX        -0.17797  -0.10875  -0.15123   0.00000   0.15123
 101        6PY         0.01111   0.10875   0.00000  -0.15123   0.15123
 102        6PZ        -0.01111  -0.10875   0.15123  -0.15123  -0.00000
 103        7PX        -1.76389   0.39150  -1.47460   0.00000   1.47460
 104        7PY         0.19240  -0.39150   0.00000  -1.47460   1.47460
 105        7PZ        -0.19240   0.39150   1.47460  -1.47460  -0.00000
 106        8D 0       -0.00064   0.00000  -0.00123   0.00123  -0.00000
 107        8D+1        0.00103  -0.00925  -0.00000   0.00542  -0.00542
 108        8D-1        0.00364   0.00925   0.00542  -0.00000  -0.00542
 109        8D+2        0.00111   0.00000   0.00071   0.00071  -0.00142
 110        8D-2       -0.00103   0.00925  -0.00542   0.00542   0.00000
 111        9D 0        0.03848   0.00000   0.20252  -0.20252   0.00000
 112        9D+1       -0.16302   0.06359  -0.00000  -0.12167   0.12167
 113        9D-1       -0.00366  -0.06359  -0.12167  -0.00000   0.12167
 114        9D+2       -0.06665   0.00000  -0.11693  -0.11693   0.23385
 115        9D-2        0.16302  -0.06359   0.12167  -0.12167   0.00000
 116 5   H  1S          0.04748  -0.03112   0.00000  -0.00000  -0.00000
 117        2S          0.03509  -0.76232   0.00000  -0.00000  -0.00000
 118        3S         -1.03354  -2.95450   0.00000  -0.00000  -0.00000
 119        4S         -2.76324  -0.66581   0.00000  -0.00000  -0.00000
 120        5PX         0.00579  -0.00348   0.00608   0.00000   0.00608
 121        5PY         0.00132   0.00348   0.00000   0.00608   0.00608
 122        5PZ         0.00132   0.00348   0.00608  -0.00608  -0.00000
 123        6PX        -0.17797   0.10875  -0.15123   0.00000  -0.15123
 124        6PY         0.01111  -0.10875   0.00000  -0.15123  -0.15123
 125        6PZ         0.01111  -0.10875  -0.15123   0.15123  -0.00000
 126        7PX        -1.76389  -0.39150  -1.47460   0.00000  -1.47460
 127        7PY         0.19240   0.39150   0.00000  -1.47460  -1.47460
 128        7PZ         0.19240   0.39150  -1.47460   1.47460  -0.00000
 129        8D 0        0.00064   0.00000   0.00123  -0.00123  -0.00000
 130        8D+1        0.00103   0.00925  -0.00000   0.00542   0.00542
 131        8D-1        0.00364  -0.00925   0.00542  -0.00000   0.00542
 132        8D+2       -0.00111   0.00000  -0.00071  -0.00071  -0.00142
 133        8D-2        0.00103   0.00925   0.00542  -0.00542   0.00000
 134        9D 0       -0.03848   0.00000  -0.20252   0.20252   0.00000
 135        9D+1       -0.16302  -0.06359  -0.00000  -0.12167  -0.12167
 136        9D-1       -0.00366   0.06359  -0.12167  -0.00000  -0.12167
 137        9D+2        0.06665   0.00000   0.11693   0.11693   0.23385
 138        9D-2       -0.16302  -0.06359  -0.12167   0.12167   0.00000
                          26        27        28        29        30
                        (T2)--V   (T2)--V   (T2)--V   (A1)--V   (T2)--V
     Eigenvalues --     0.31853   0.31853   0.31853   0.31919   0.36435
   1 1   C  1S          0.00000   0.00000   0.00000  -0.08563   0.00000
   2        2S          0.00000   0.00000   0.00000   0.29762   0.00000
   3        3S          0.00000   0.00000   0.00000  -0.02588   0.00000
   4        4S          0.00000   0.00000   0.00000  23.53676   0.00000
   5        5S          0.00000   0.00000   0.00000   8.50765   0.00000
   6        6PX         0.00000  -0.09722   0.00000   0.00000   0.00000
   7        6PY         0.00000   0.00000  -0.09722   0.00000  -0.15448
   8        6PZ        -0.09722   0.00000   0.00000   0.00000   0.00000
   9        7PX         0.00000  -0.29802   0.00000   0.00000   0.00000
  10        7PY         0.00000   0.00000  -0.29802   0.00000  -1.39207
  11        7PZ        -0.29802   0.00000   0.00000   0.00000   0.00000
  12        8PX         0.00000  -2.56150   0.00000   0.00000   0.00000
  13        8PY         0.00000   0.00000  -2.56150   0.00000 -12.71110
  14        8PZ        -2.56150   0.00000   0.00000   0.00000   0.00000
  15        9PX         0.00000  -1.70667   0.00000   0.00000   0.00000
  16        9PY         0.00000   0.00000  -1.70667   0.00000  -1.47364
  17        9PZ        -1.70667   0.00000   0.00000   0.00000   0.00000
  18       10D 0        0.00000   0.00000   0.00000  -0.00000   0.00000
  19       10D+1        0.00000   0.00000  -0.00912   0.00000   0.00677
  20       10D-1        0.00000  -0.00912   0.00000   0.00000   0.00000
  21       10D+2        0.00000   0.00000   0.00000   0.00000   0.00000
  22       10D-2       -0.00912   0.00000   0.00000   0.00000   0.00000
  23       11D 0        0.00000   0.00000   0.00000   0.00000   0.00000
  24       11D+1        0.00000   0.00000   0.50546   0.00000  -1.34002
  25       11D-1        0.00000   0.50546   0.00000   0.00000   0.00000
  26       11D+2        0.00000   0.00000   0.00000   0.00000   0.00000
  27       11D-2        0.50546   0.00000   0.00000   0.00000   0.00000
  28       12D 0        0.00000   0.00000   0.00000   0.00000   0.00000
  29       12D+1        0.00000   0.00000   4.12642   0.00000  -5.23823
  30       12D-1        0.00000   4.12642   0.00000   0.00000   0.00000
  31       12D+2        0.00000   0.00000   0.00000   0.00000   0.00000
  32       12D-2        4.12642   0.00000   0.00000   0.00000   0.00000
  33       13F 0       -0.01064   0.00000   0.00000   0.00000   0.00000
  34       13F+1        0.00000   0.00652   0.00000   0.00000   0.00000
  35       13F-1        0.00000   0.00000   0.00652   0.00000  -0.02311
  36       13F+2       -0.00000   0.00000   0.00000   0.00000   0.00000
  37       13F-2        0.00000   0.00000   0.00000   0.05181   0.00000
  38       13F+3        0.00000  -0.00841   0.00000   0.00000   0.00000
  39       13F-3        0.00000   0.00000   0.00841   0.00000  -0.02983
  40       14F 0       -0.12506   0.00000   0.00000   0.00000   0.00000
  41       14F+1        0.00000   0.07658   0.00000   0.00000   0.00000
  42       14F-1        0.00000   0.00000   0.07658   0.00000  -0.24339
  43       14F+2        0.00000   0.00000   0.00000   0.00000   0.00000
  44       14F-2        0.00000   0.00000   0.00000   0.42230   0.00000
  45       14F+3        0.00000  -0.09887   0.00000   0.00000   0.00000
  46       14F-3        0.00000   0.00000   0.09887   0.00000  -0.31421
  47 2   H  1S          0.00945   0.00945   0.00945   0.01955   0.03300
  48        2S         -0.32949  -0.32949  -0.32949  -1.42787   1.82317
  49        3S         -1.25289  -1.25289  -1.25289  -6.29602  19.86569
  50        4S          1.42966   1.42966   1.42966  -0.82884   1.81666
  51        5PX         0.01051   0.00052   0.01051  -0.00351   0.00286
  52        5PY         0.01051   0.01051   0.00052  -0.00351  -0.00461
  53        5PZ         0.00052   0.01051   0.01051  -0.00351   0.00286
  54        6PX        -0.05379   0.12105  -0.05379   0.24047  -0.28706
  55        6PY        -0.05379  -0.05379   0.12105   0.24047  -0.48194
  56        6PZ         0.12105  -0.05379  -0.05379   0.24047  -0.28706
  57        7PX        -1.50740   1.33733  -1.50740   1.33834  -2.42295
  58        7PY        -1.50740  -1.50740   1.33733   1.33834  -5.01725
  59        7PZ         1.33733  -1.50740  -1.50740   1.33834  -2.42295
  60        8D 0        0.00305  -0.00152  -0.00152   0.00000  -0.00302
  61        8D+1       -0.00346  -0.00346   0.00718  -0.00838   0.00971
  62        8D-1       -0.00346   0.00718  -0.00346  -0.00838   0.01622
  63        8D+2        0.00000   0.00264  -0.00264   0.00000  -0.00522
  64        8D-2        0.00718  -0.00346  -0.00346  -0.00838   0.01622
  65        9D 0       -0.21521   0.10761   0.10761   0.00000  -0.06224
  66        9D+1        0.04722   0.04722   0.06820  -0.03036   0.05536
  67        9D-1        0.04722   0.06820   0.04722  -0.03036   0.14273
[...]
      X   X                                                                                                                          
      X   X                                                                                                                          
      X   X                                                                                                                          
      X   X                                                                                                                          
      X   X                                                                                                                          
      X   X                                                                                                                          
      X   X                                                                                                                          
      X   X                                                                                                                          
      X   X                                                                                                                          
          X                                                                                                                          
          X                                                                                                                          
          X                                                                                                                          
          X                                                                                                                          
          X                                                                                                                          
          X                                                                                                                          
          X                                                                                                                          
 
 ***** Axes restored to original set *****
 -------------------------------------------------------------------
 Center     Atomic                   Forces (Hartrees/Bohr)
 Number     Number              X              Y              Z
 -------------------------------------------------------------------
      1        6          -0.000000000   -0.000000000    0.000000000
      2        1          -0.000000025    0.000000070    0.000000000
      3        1          -0.000000025   -0.000000035   -0.000000061
      4        1          -0.000000025   -0.000000035    0.000000061
      5        1           0.000000074   -0.000000000   -0.000000000
 -------------------------------------------------------------------
 Cartesian Forces:  Max     0.000000074 RMS     0.000000038
 Force constants in Cartesian coordinates: 
                1             2             3             4             5 
      1  0.539858D+00
      2  0.000000D+00  0.539858D+00
      3  0.000000D+00  0.000000D+00  0.539858D+00
      4 -0.749999D-01  0.847973D-01  0.000000D+00  0.776361D-01
      5  0.847973D-01 -0.284873D+00  0.000000D+00 -0.934350D-01  0.308888D+00
      6  0.000000D+00  0.000000D+00 -0.450207D-01  0.000000D+00  0.000000D+00
      7 -0.750030D-01 -0.424003D-01 -0.734401D-01  0.319310D-02  0.453063D-02
      8 -0.424003D-01 -0.104982D+00 -0.103857D+00 -0.114008D-01 -0.129785D-01
      9 -0.734401D-01 -0.103857D+00 -0.224908D+00  0.135039D-02  0.866605D-03
     10 -0.750030D-01 -0.424003D-01  0.734401D-01  0.319310D-02  0.453063D-02
     11 -0.424003D-01 -0.104982D+00  0.103857D+00 -0.114008D-01 -0.129785D-01
     12  0.734401D-01  0.103857D+00 -0.224908D+00 -0.135039D-02 -0.866605D-03
     13 -0.314852D+00  0.331798D-05  0.000000D+00 -0.902236D-02 -0.423563D-03
     14  0.331651D-05 -0.450207D-01  0.000000D+00  0.314393D-01  0.194249D-02
     15  0.000000D+00  0.000000D+00 -0.450207D-01  0.000000D+00  0.000000D+00
                6             7             8             9            10 
      6  0.446031D-01
      7  0.105481D-01  0.776395D-01
      8 -0.251494D-01  0.467193D-01  0.110672D+00
      9  0.104104D-02  0.809209D-01  0.114437D+00  0.242815D+00
     10 -0.105481D-01  0.319336D-02  0.686981D-02 -0.919817D-02  0.776395D-01
     11  0.251494D-01  0.686981D-02  0.805067D-02 -0.130078D-01  0.467193D-01
     12  0.104104D-02  0.919817D-02  0.130078D-01 -0.199884D-01 -0.809209D-01
     13  0.000000D+00 -0.902293D-02  0.211950D-03  0.366952D-03 -0.902293D-02
     14  0.000000D+00 -0.157195D-01 -0.762438D-03  0.156202D-02 -0.157195D-01
     15 -0.166446D-02 -0.272271D-01  0.156236D-02  0.104104D-02  0.272271D-01
               11            12            13            14            15 
     11  0.110672D+00
     12 -0.114437D+00  0.242815D+00
     13  0.211950D-03 -0.366952D-03  0.341920D+00
     14 -0.762438D-03 -0.156202D-02 -0.365430D-05  0.446031D-01
     15 -0.156236D-02  0.104104D-02  0.000000D+00  0.000000D+00  0.446031D-01
 FormGI is forming the generalized inverse of G from B-inverse, IUseBI=4.
 Force constants in internal coordinates: 
                1             2             3             4             5 
      1  0.341920D+00
      2  0.260811D-02  0.341920D+00
      3  0.260811D-02  0.260811D-02  0.341920D+00
      4  0.260811D-02  0.260811D-02  0.260811D-02  0.341920D+00
      5  0.196091D-02  0.196091D-02 -0.123127D-02 -0.269055D-02  0.193414D-01
      6  0.307321D-02 -0.793086D-03  0.342019D-02 -0.570031D-02 -0.858231D-02
      7  0.600565D-02 -0.481998D-02 -0.533549D-02  0.414983D-02 -0.128183D-01
      8 -0.793087D-03  0.307321D-02  0.342019D-02 -0.570031D-02 -0.858231D-02
      9 -0.481998D-02  0.600565D-02 -0.533549D-02  0.414982D-02 -0.128183D-01
     10 -0.542669D-02 -0.542669D-02  0.506187D-02  0.579151D-02  0.234599D-01
     11 -0.379790D-02 -0.379790D-02 -0.268087D-02  0.102767D-01 -0.131772D-01
     12  0.312768D-02  0.312768D-02 -0.804260D-02  0.178724D-02  0.798910D-02
     13 -0.411843D-02  0.724611D-02 -0.402130D-02  0.893622D-03  0.399455D-02
     14 -0.724611D-02  0.411843D-02  0.402130D-02 -0.893623D-03 -0.399455D-02
                6             7             8             9            10 
      6  0.364645D-01
      7 -0.221598D-01  0.712384D-01
      8 -0.203039D-02  0.243293D-01  0.364645D-01
      9  0.243293D-01 -0.345419D-01 -0.221598D-01  0.712384D-01
     10 -0.280213D-01 -0.260477D-01 -0.280213D-01 -0.260477D-01  0.846780D-01
     11 -0.105754D-01  0.143707D-01 -0.105754D-01  0.143707D-01  0.558655D-02
     12 -0.918261D-02  0.677274D-02 -0.918261D-02  0.677274D-02 -0.316935D-02
     13 -0.139302D-01 -0.533489D-03  0.474761D-02  0.730622D-02 -0.158468D-02
     14 -0.474761D-02 -0.730622D-02  0.139302D-01  0.533489D-03  0.158468D-02
               11            12            13            14 
     11  0.290908D-01
     12  0.146174D-02  0.180795D-01
     13  0.730871D-03  0.903974D-02  0.183581D-01
     14 -0.730871D-03 -0.903974D-02  0.931832D-02  0.183581D-01
 Leave Link  716 at Fri Sep  6 16:35:34 2024, MaxMem=   536870912 cpu:               0.1 elap:               0.0
 (Enter /Users/asuyarger/Applications/G16/g16/l103.exe)

 GradGradGradGradGradGradGradGradGradGradGradGradGradGradGradGradGradGrad
 Berny optimization.
 Red2BG is reusing G-inverse.
 Internal  Forces:  Max     0.000000074 RMS     0.000000040
 Search for a local minimum.
 Step number   1 out of a maximum of    2
 All quantities printed in internal units (Hartrees-Bohrs-Radians)
 Second derivative matrix not updated -- analytic derivatives used.
 The second derivative matrix:
                          R1        R2        R3        R4        A1
           R1           0.34192
           R2           0.00261   0.34192
           R3           0.00261   0.00261   0.34192
           R4           0.00261   0.00261   0.00261   0.34192
           A1           0.00196   0.00196  -0.00123  -0.00269   0.01934
           A2           0.00307  -0.00079   0.00342  -0.00570  -0.00858
           A3           0.00601  -0.00482  -0.00534   0.00415  -0.01282
           A4          -0.00079   0.00307   0.00342  -0.00570  -0.00858
           A5          -0.00482   0.00601  -0.00534   0.00415  -0.01282
           A6          -0.00543  -0.00543   0.00506   0.00579   0.02346
           D1          -0.00380  -0.00380  -0.00268   0.01028  -0.01318
           D2           0.00313   0.00313  -0.00804   0.00179   0.00799
           D3          -0.00412   0.00725  -0.00402   0.00089   0.00399
           D4          -0.00725   0.00412   0.00402  -0.00089  -0.00399
                          A2        A3        A4        A5        A6
           A2           0.03646
           A3          -0.02216   0.07124
           A4          -0.00203   0.02433   0.03646
           A5           0.02433  -0.03454  -0.02216   0.07124
           A6          -0.02802  -0.02605  -0.02802  -0.02605   0.08468
           D1          -0.01058   0.01437  -0.01058   0.01437   0.00559
           D2          -0.00918   0.00677  -0.00918   0.00677  -0.00317
           D3          -0.01393  -0.00053   0.00475   0.00731  -0.00158
           D4          -0.00475  -0.00731   0.01393   0.00053   0.00158
                          D1        D2        D3        D4
           D1           0.02909
           D2           0.00146   0.01808
           D3           0.00073   0.00904   0.01836
           D4          -0.00073  -0.00904   0.00932   0.01836
 ITU=  0
     Eigenvalues ---    0.03704   0.04172   0.06338   0.12875   0.12927
     Eigenvalues ---    0.34026   0.34027   0.34056   0.34974
 Angle between quadratic step and forces=  90.00 degrees.
 Linear search not attempted -- first point.
 Iteration  1 RMS(Cart)=  0.00000011 RMS(Int)=  0.00000000
 ITry= 1 IFail=0 DXMaxC= 2.12D-07 DCOld= 1.00D+10 DXMaxT= 3.00D-01 DXLimC= 3.00D+00 Rises=F
 ClnCor:  largest displacement from symmetrization is 7.89D-14 for atom     3.
 Variable       Old X    -DE/DX   Delta X   Delta X   Delta X     New X
                                 (Linear)    (Quad)   (Total)
    R1        2.05655  -0.00000   0.00000  -0.00000  -0.00000   2.05655
    R2        2.05655  -0.00000   0.00000  -0.00000  -0.00000   2.05655
    R3        2.05655  -0.00000   0.00000  -0.00000  -0.00000   2.05655
    R4        2.05655  -0.00000   0.00000  -0.00000  -0.00000   2.05655
    A1        1.91063  -0.00000   0.00000  -0.00000  -0.00000   1.91063
    A2        1.91063   0.00000   0.00000   0.00000   0.00000   1.91063
    A3        1.91063   0.00000   0.00000   0.00000  -0.00000   1.91063
    A4        1.91063   0.00000   0.00000   0.00000  -0.00000   1.91063
    A5        1.91063   0.00000   0.00000   0.00000   0.00000   1.91063
    A6        1.91063  -0.00000   0.00000  -0.00000   0.00000   1.91063
    D1       -2.09440   0.00000   0.00000   0.00000   0.00000  -2.09440
    D2        2.09440  -0.00000   0.00000  -0.00000   0.00000   2.09440
    D3       -2.09440   0.00000   0.00000  -0.00000  -0.00000  -2.09440
    D4        2.09440   0.00000   0.00000   0.00000  -0.00000   2.09440
         Item               Value     Threshold  Converged?
 Maximum Force            0.000000     0.000015     YES
 RMS     Force            0.000000     0.000010     YES
 Maximum Displacement     0.000000     0.000060     YES
 RMS     Displacement     0.000000     0.000040     YES
 Predicted change in Energy=-3.155305D-14
 Optimization completed.
    -- Stationary point found.
                           ----------------------------
                           !   Optimized Parameters   !
                           ! (Angstroms and Degrees)  !
 --------------------------                            --------------------------
 ! Name  Definition              Value          Derivative Info.                !
 --------------------------------------------------------------------------------
 ! R1    R(1,2)                  1.0883         -DE/DX =    0.0                 !
 ! R2    R(1,3)                  1.0883         -DE/DX =    0.0                 !
 ! R3    R(1,4)                  1.0883         -DE/DX =    0.0                 !
 ! R4    R(1,5)                  1.0883         -DE/DX =    0.0                 !
 ! A1    A(2,1,3)              109.4712         -DE/DX =    0.0                 !
 ! A2    A(2,1,4)              109.4712         -DE/DX =    0.0                 !
 ! A3    A(2,1,5)              109.4712         -DE/DX =    0.0                 !
 ! A4    A(3,1,4)              109.4712         -DE/DX =    0.0                 !
 ! A5    A(3,1,5)              109.4712         -DE/DX =    0.0                 !
 ! A6    A(4,1,5)              109.4712         -DE/DX =    0.0                 !
 ! D1    D(2,1,4,3)           -120.0            -DE/DX =    0.0                 !
 ! D2    D(2,1,5,3)            120.0            -DE/DX =    0.0                 !
 ! D3    D(2,1,5,4)           -120.0            -DE/DX =    0.0                 !
 ! D4    D(3,1,5,4)            120.0            -DE/DX =    0.0                 !
 --------------------------------------------------------------------------------
 GradGradGradGradGradGradGradGradGradGradGradGradGradGradGradGradGradGrad

 Leave Link  103 at Fri Sep  6 16:35:35 2024, MaxMem=   536870912 cpu:               0.0 elap:               0.0
 (Enter /Users/asuyarger/Applications/G16/g16/l9999.exe)
 Dipole is zero, so no output in dipole orientation.

 ----------------------------------------------------------------------

 Electric dipole moment (input orientation):
 (Debye = 10**-18 statcoulomb cm , SI units = C m)
                  (au)            (Debye)         (10**-30 SI)
   Tot        0.000000D+00      0.000000D+00      0.000000D+00
   x          0.000000D+00      0.000000D+00      0.000000D+00
   y          0.000000D+00      0.000000D+00      0.000000D+00
   z          0.000000D+00      0.000000D+00      0.000000D+00

 Dipole polarizability, Alpha (input orientation).
 (esu units = cm**3 , SI units = C**2 m**2 J**-1)
 Alpha(0;0):
               (au)            (10**-24 esu)      (10**-40 SI)
   iso        0.170217D+02      0.252236D+01      0.280650D+01
   aniso      0.000000D+00      0.000000D+00      0.000000D+00
   xx         0.170217D+02      0.252236D+01      0.280650D+01
   yx         0.000000D+00      0.000000D+00      0.000000D+00
   yy         0.170217D+02      0.252236D+01      0.280650D+01
   zx         0.000000D+00      0.000000D+00      0.000000D+00
   zy         0.000000D+00      0.000000D+00      0.000000D+00
   zz         0.170217D+02      0.252236D+01      0.280650D+01

 First dipole hyperpolarizability, Beta (input orientation).
 ||, _|_  parallel and perpendicular components, (z) with respect to z axis,
 vector components x,y,z.  Values do not include the 1/n! factor of 1/2.
 (esu units = statvolt**-1 cm**4 , SI units = C**3 m**3 J**-2)
 Beta(0;0,0):
               (au)            (10**-30 esu)      (10**-50 SI)
   || (z)     0.000000D+00      0.000000D+00      0.000000D+00
   _|_(z)     0.000000D+00      0.000000D+00      0.000000D+00
   x          0.000000D+00      0.000000D+00      0.000000D+00
   y          0.000000D+00      0.000000D+00      0.000000D+00
   z          0.000000D+00      0.000000D+00      0.000000D+00
   ||         0.000000D+00      0.000000D+00      0.000000D+00
   xxx       -0.129643D+02     -0.112001D+00     -0.415682D-01
   xxy        0.318684D-03      0.275318D-05      0.102182D-05
   yxy        0.648204D+01      0.559997D-01      0.207837D-01
   yyy       -0.916738D+01     -0.791990D-01     -0.293939D-01
   xxz        0.000000D+00      0.000000D+00      0.000000D+00
   yxz        0.000000D+00      0.000000D+00      0.000000D+00
   yyz        0.000000D+00      0.000000D+00      0.000000D+00
   zxz        0.648226D+01      0.560017D-01      0.207845D-01
   zyz        0.916706D+01      0.791963D-01      0.293929D-01
   zzz        0.000000D+00      0.000000D+00      0.000000D+00

 ----------------------------------------------------------------------
 1\1\GINC-JEFFSMACSTUDIO\Freq\RB3LYP\Aug-CC-pVTZ\C1H4\ROOT\06-Sep-2024\
 0\\#P Geom=AllCheck Guess=TCheck SCRF=Check GenChk RB3LYP/Aug-CC-pVTZ 
 Freq\\CH4 DFT B3LPY aug-cc-pVTZ Opt Freq - Full - NBO\\0,1\C,-0.081374
 299,0.28028924,0.\H,0.281373191,-0.745755728,-0.0000000142\H,0.2813921
 2,0.7933050282,0.8885771458\H,0.2813920948,0.7933050439,-0.8885771471\
 H,-1.1696546019,0.2803026159,0.0000000154\\Version=EM64M-G16RevA.03\St
 ate=1-A1\HF=-40.538425\RMSD=5.673e-11\RMSF=3.836e-08\ZeroPoint=0.04453
 68\Thermal=0.0474057\Dipole=0.,0.,0.\DipoleDeriv=0.0082406,0.,0.,0.,0.
 0082406,0.,0.,0.,0.0082406,0.042056,0.0623855,0.,0.0623855,-0.1123481,
 0.,0.,0.,0.0641117,0.0420537,-0.031194,-0.05403,-0.031194,0.0199979,-0
 .076408,-0.05403,-0.076408,-0.068232,0.0420537,-0.031194,0.05403,-0.03
 1194,0.0199979,0.076408,0.05403,0.076408,-0.068232,-0.1344038,0.000002
 4,0.,0.0000024,0.0641117,0.,0.,0.,0.0641117\Polar=17.021735,0.,17.0217
 35,0.,0.,17.021735\PolarDeriv=6.8586446,-0.0001686,-3.4292627,-0.00000
 02,0.,-3.4293819,-0.0001687,-3.4292627,4.8499205,0.,0.0000002,-4.84975
 21,-0.0000003,0.,0.0000001,-3.4293818,-4.8497519,-0.0000001,0.7720563,
 -1.3061432,2.4204257,0.,0.,0.8360306,-2.1804998,2.111306,-7.9661026,0.
 ,0.,-1.2481972,0.0000002,0.,0.,0.5269109,-0.3738405,0.,0.7721448,0.653
 1117,1.2321628,1.1312101,0.686091,2.0244154,1.0902842,0.9230269,1.7441
 602,0.6860911,1.6163118,2.8628807,1.8884221,0.686091,2.3735235,1.71527
 95,2.4257082,5.6061976,0.7721445,0.6531117,1.2321625,-1.1312101,-0.686
 091,2.024415,1.0902844,0.9230269,1.7441604,-0.686091,-1.6163118,2.8628
 809,-1.8884218,-0.6860909,-2.3735237,1.7152794,2.4257083,-5.6061976,-9
 .17499,0.0000883,-1.4554883,0.,0.,-1.4554793,0.0000998,-0.5280971,-0.3
 721384,0.,0.,0.3721873,0.,0.,-0.0000002,-0.528088,0.3721758,0.\HyperPo
 lar=-12.9642965,0.0003187,6.4820356,-9.167381,0.0000004,0.0000001,-0.0
 000003,6.4822609,9.1670623,0.\Quadrupole=0.,0.,0.,0.,0.,0.\PG=TD [O(C1
 ),4C3(H1)]\NImag=0\\0.53985825,0.,0.53985825,0.,0.,0.53985825,-0.07499
 992,0.08479729,0.,0.07763607,0.08479729,-0.28487305,0.,-0.09343499,0.3
 0888750,0.,0.,-0.04502072,0.,0.,0.04460311,-0.07500305,-0.04240030,-0.
 07344012,0.00319310,0.00453063,0.01054808,0.07763952,-0.04240030,-0.10
 498224,-0.10385730,-0.01140078,-0.01297847,-0.02514940,0.04671932,0.11
 067248,-0.07344012,-0.10385730,-0.22490840,0.00135039,0.00086661,0.001
 04104,0.08092094,0.11443651,0.24281468,-0.07500304,-0.04240030,0.07344
 011,0.00319310,0.00453063,-0.01054808,0.00319336,0.00686981,-0.0091981
 7,0.07763952,-0.04240030,-0.10498224,0.10385730,-0.01140078,-0.0129784
 7,0.02514940,0.00686981,0.00805067,-0.01300783,0.04671932,0.11067249,0
 .07344011,0.10385730,-0.22490840,-0.00135039,-0.00086661,0.00104104,0.
 00919817,0.01300783,-0.01998835,-0.08092094,-0.11443651,0.24281468,-0.
 31485224,0.00000332,0.,-0.00902236,-0.00042356,0.,-0.00902293,0.000211
 95,0.00036695,-0.00902293,0.00021195,-0.00036695,0.34192046,0.00000332
 ,-0.04502072,0.,0.03143927,0.00194249,0.,-0.01571947,-0.00076244,0.001
 56202,-0.01571947,-0.00076244,-0.00156202,-0.00000365,0.04460311,0.,0.
 ,-0.04502072,0.,0.,-0.00166446,-0.02722707,0.00156236,0.00104104,0.027
 22707,-0.00156236,0.00104104,0.,0.,0.04460311\\0.,0.,0.,0.00000002,-0.
 00000007,0.,0.00000002,0.00000004,0.00000006,0.00000002,0.00000004,-0.
 00000006,-0.00000007,0.,0.\\\@


 THERE IS NOTHING NOBLE IN BEING SUPERIOR TO SOME OTHER MAN.
 TRUE NOBILITY IS BEING SUPERIOR TO YOUR FORMER SELF.

                                                   -- HINDU PROVERB
 Job cpu time:       0 days  0 hours  0 minutes 14.4 seconds.
 Elapsed time:       0 days  0 hours  0 minutes 14.0 seconds.
 File lengths (MBytes):  RWF=     16 Int=      0 D2E=      0 Chk=      3 Scr=      1
 Normal termination of Gaussian 16 at Fri Sep  6 16:35:35 2024.
