 Entering Gaussian System, Link 0=g16
 Input=/Users/asuyarger/Downloads/CH4_DFT_B3LPY_6311pp2d3p_Opt_Freq_Full_NBO_Raman.gjf
 Output=/Users/asuyarger/Downloads/CH4_DFT_B3LPY_6311pp2d3p_Opt_Freq_Full_NBO_Raman.log
 Initial command:
 /Users/asuyarger/Applications/G16/g16/l1.exe "/Users/asuyarger/Applications/G16/scratch/Gau-92865.inp" -scrdir="/Users/asuyarger/Applications/G16/scratch/"
 Entering Link 1 = /Users/asuyarger/Applications/G16/g16/l1.exe PID=     92866.
  
 Copyright (c) 1988,1990,1992,1993,1995,1998,2003,2009,2016,
            Gaussian, Inc.  All Rights Reserved.
  
 This is part of the Gaussian(R) 16 program.  It is based on
 the Gaussian(R) 09 system (copyright 2009, Gaussian, Inc.),
 the Gaussian(R) 03 system (copyright 2003, Gaussian, Inc.),
 the Gaussian(R) 98 system (copyright 1998, Gaussian, Inc.),
 the Gaussian(R) 94 system (copyright 1995, Gaussian, Inc.),
 the Gaussian 92(TM) system (copyright 1992, Gaussian, Inc.),
 the Gaussian 90(TM) system (copyright 1990, Gaussian, Inc.),
 the Gaussian 88(TM) system (copyright 1988, Gaussian, Inc.),
 the Gaussian 86(TM) system (copyright 1986, Carnegie Mellon
 University), and the Gaussian 82(TM) system (copyright 1983,
 Carnegie Mellon University). Gaussian is a federally registered
 trademark of Gaussian, Inc.
  
 This software contains proprietary and confidential information,
 including trade secrets, belonging to Gaussian, Inc.
  
 This software is provided under written license and may be
 used, copied, transmitted, or stored only in accord with that
 written license.
  
 The following legend is applicable only to US Government
 contracts under FAR:
  
                    RESTRICTED RIGHTS LEGEND
  
 Use, reproduction and disclosure by the US Government is
 subject to restrictions as set forth in subparagraphs (a)
 and (c) of the Commercial Computer Software - Restricted
 Rights clause in FAR 52.227-19.
  
 Gaussian, Inc.
 340 Quinnipiac St., Bldg. 40, Wallingford CT 06492
  
  
 ---------------------------------------------------------------
 Warning -- This program may not be used in any manner that
 competes with the business of Gaussian, Inc. or will provide
 assistance to any competitor of Gaussian, Inc.  The licensee
 of this program is prohibited from giving any competitor of
 Gaussian, Inc. access to this program.  By using this program,
 the user acknowledges that Gaussian, Inc. is engaged in the
 business of creating and licensing software in the field of
 computational chemistry and represents and warrants to the
 licensee that it is not a competitor of Gaussian, Inc. and that
 it will not use this program in any manner prohibited above.
 ---------------------------------------------------------------
  

 Cite this work as:
 Gaussian 16, Revision A.03,
 M. J. Frisch, G. W. Trucks, H. B. Schlegel, G. E. Scuseria, 
 M. A. Robb, J. R. Cheeseman, G. Scalmani, V. Barone, 
 G. A. Petersson, H. Nakatsuji, X. Li, M. Caricato, A. V. Marenich, 
 J. Bloino, B. G. Janesko, R. Gomperts, B. Mennucci, H. P. Hratchian, 
 J. V. Ortiz, A. F. Izmaylov, J. L. Sonnenberg, D. Williams-Young, 
 F. Ding, F. Lipparini, F. Egidi, J. Goings, B. Peng, A. Petrone, 
 T. Henderson, D. Ranasinghe, V. G. Zakrzewski, J. Gao, N. Rega, 
 G. Zheng, W. Liang, M. Hada, M. Ehara, K. Toyota, R. Fukuda, 
 J. Hasegawa, M. Ishida, T. Nakajima, Y. Honda, O. Kitao, H. Nakai, 
 T. Vreven, K. Throssell, J. A. Montgomery, Jr., J. E. Peralta, 
 F. Ogliaro, M. J. Bearpark, J. J. Heyd, E. N. Brothers, K. N. Kudin, 
 V. N. Staroverov, T. A. Keith, R. Kobayashi, J. Normand, 
 K. Raghavachari, A. P. Rendell, J. C. Burant, S. S. Iyengar, 
 J. Tomasi, M. Cossi, J. M. Millam, M. Klene, C. Adamo, R. Cammi, 
 J. W. Ochterski, R. L. Martin, K. Morokuma, O. Farkas, 
 J. B. Foresman, and D. J. Fox, Gaussian, Inc., Wallingford CT, 2016.
 
 ******************************************
 Gaussian 16:  EM64M-G16RevA.03 25-Dec-2016
                 6-Sep-2024 
 ******************************************
 %nprocshared=4
 Will use up to    4 processors via shared memory.
 %mem=4GB
 %chk=CH4_DFT_B3LPY_6311pp2d3p_Opt_Freq_Full_NBO_Raman.chk
 ----------------------------------------------------------------------
 #p opt=tight freq=raman b3lyp/6-311++g(2d,3p) guess=save pop=(hirshfel
 d,full,nbo) geom=connectivity polar
 ----------------------------------------------------------------------
 1/7=10,18=20,19=15,26=3,38=1,57=2/1,3;
 2/9=110,12=2,17=6,18=5,40=1/2;
 3/5=4,6=6,7=1512,11=2,25=1,30=1,71=1,74=-5/1,2,3;
 4//1;
 5/5=2,38=5,98=1/2;
 6/7=3,28=1,40=1,79=1/1,7;
 7//1,2,3,16;
 1/7=10,18=20,19=15,26=3/3(2);
 2/9=110/2;
 99//99;
 2/9=110/2;
 3/5=4,6=6,7=1512,11=2,25=1,30=1,71=1,74=-5/1,2,3;
 4/5=5,16=3,69=1/1;
 5/5=2,38=5,98=1/2;
 7//1,2,3,16;
 1/7=10,18=20,19=15,26=3/3(-5);
 2/9=110/2;
 6/7=3,19=2,28=1,40=1,79=1/1,7;
 99/9=1/99;
 Leave Link    1 at Fri Sep  6 16:34:03 2024, MaxMem=   536870912 cpu:               0.1 elap:               0.0
 (Enter /Users/asuyarger/Applications/G16/g16/l101.exe)
 ---------------------------------------------------
 CH4 DFT B3LPY 6-311++g(2d,3p) Opt Freq - Full - NBO
 ---------------------------------------------------
 Symbolic Z-matrix:
 Charge =  0 Multiplicity = 1
 C                    -0.08137   0.28029   0. 
 H                     0.27528  -0.72852   0. 
 H                     0.2753    0.78469   0.87365 
 H                     0.2753    0.78469  -0.87365 
 H                    -1.15137   0.2803    0. 
 
 ITRead=  0  0  0  0  0
 MicOpt= -1 -1 -1 -1 -1
 NAtoms=      5 NQM=        5 NQMF=       0 NMMI=      0 NMMIF=      0
                NMic=       0 NMicF=      0.
                    Isotopes and Nuclear Properties:
 (Nuclear quadrupole moments (NQMom) in fm**2, nuclear magnetic moments (NMagM)
  in nuclear magnetons)

  Atom         1           2           3           4           5
 IAtWgt=          12           1           1           1           1
 AtmWgt=  12.0000000   1.0078250   1.0078250   1.0078250   1.0078250
 NucSpn=           0           1           1           1           1
 AtZEff=  -0.0000000  -0.0000000  -0.0000000  -0.0000000  -0.0000000
 NQMom=    0.0000000   0.0000000   0.0000000   0.0000000   0.0000000
 NMagM=    0.0000000   2.7928460   2.7928460   2.7928460   2.7928460
 AtZNuc=   6.0000000   1.0000000   1.0000000   1.0000000   1.0000000
 Leave Link  101 at Fri Sep  6 16:34:03 2024, MaxMem=   536870912 cpu:               0.5 elap:               0.1
 (Enter /Users/asuyarger/Applications/G16/g16/l103.exe)

 GradGradGradGradGradGradGradGradGradGradGradGradGradGradGradGradGradGrad
 Berny optimization.
 Initialization pass.
                           ----------------------------
                           !    Initial Parameters    !
                           ! (Angstroms and Degrees)  !
 --------------------------                            --------------------------
 ! Name  Definition              Value          Derivative Info.                !
 --------------------------------------------------------------------------------
 ! R1    R(1,2)                  1.07           estimate D2E/DX2                !
 ! R2    R(1,3)                  1.07           estimate D2E/DX2                !
 ! R3    R(1,4)                  1.07           estimate D2E/DX2                !
 ! R4    R(1,5)                  1.07           estimate D2E/DX2                !
 ! A1    A(2,1,3)              109.4712         estimate D2E/DX2                !
 ! A2    A(2,1,4)              109.4712         estimate D2E/DX2                !
 ! A3    A(2,1,5)              109.4712         estimate D2E/DX2                !
 ! A4    A(3,1,4)              109.4712         estimate D2E/DX2                !
 ! A5    A(3,1,5)              109.4712         estimate D2E/DX2                !
 ! A6    A(4,1,5)              109.4712         estimate D2E/DX2                !
 ! D1    D(2,1,4,3)           -120.0            estimate D2E/DX2                !
 ! D2    D(2,1,5,3)            120.0            estimate D2E/DX2                !
 ! D3    D(2,1,5,4)           -120.0            estimate D2E/DX2                !
 ! D4    D(3,1,5,4)            120.0            estimate D2E/DX2                !
 --------------------------------------------------------------------------------
 Trust Radius=3.00D-01 FncErr=1.00D-07 GrdErr=1.00D-06 EigMax=2.50D+02 EigMin=1.00D-04
 Number of steps in this run=     24 maximum allowed number of steps=    100.
 GradGradGradGradGradGradGradGradGradGradGradGradGradGradGradGradGradGrad

 Leave Link  103 at Fri Sep  6 16:34:03 2024, MaxMem=   536870912 cpu:               0.0 elap:               0.0
 (Enter /Users/asuyarger/Applications/G16/g16/l202.exe)
                          Input orientation:                          
 ---------------------------------------------------------------------
 Center     Atomic      Atomic             Coordinates (Angstroms)
 Number     Number       Type             X           Y           Z
 ---------------------------------------------------------------------
      1          6           0       -0.081374    0.280289    0.000000
      2          1           0        0.275280   -0.728521    0.000000
      3          1           0        0.275299    0.784688    0.873651
      4          1           0        0.275299    0.784688   -0.873651
      5          1           0       -1.151374    0.280302    0.000000
 ---------------------------------------------------------------------
                    Distance matrix (angstroms):
                    1          2          3          4          5
     1  C    0.000000
     2  H    1.070000   0.000000
     3  H    1.070000   1.747303   0.000000
     4  H    1.070000   1.747303   1.747303   0.000000
     5  H    1.070000   1.747303   1.747303   1.747303   0.000000
 Stoichiometry    CH4
 Framework group  TD[O(C),4C3(H)]
 Deg. of freedom     1
 Full point group                 TD      NOp  24
 Largest Abelian subgroup         D2      NOp   4
 Largest concise Abelian subgroup D2      NOp   4
                         Standard orientation:                         
 ---------------------------------------------------------------------
 Center     Atomic      Atomic             Coordinates (Angstroms)
 Number     Number       Type             X           Y           Z
 ---------------------------------------------------------------------
      1          6           0        0.000000    0.000000    0.000000
      2          1           0        0.617765    0.617765    0.617765
      3          1           0       -0.617765   -0.617765    0.617765
      4          1           0       -0.617765    0.617765   -0.617765
      5          1           0        0.617765   -0.617765   -0.617765
 ---------------------------------------------------------------------
 Rotational constants (GHZ):         164.2463651         164.2463651         164.2463651
 Leave Link  202 at Fri Sep  6 16:34:03 2024, MaxMem=   536870912 cpu:               0.0 elap:               0.0
 (Enter /Users/asuyarger/Applications/G16/g16/l301.exe)
 Standard basis: 6-311++G(2d,3p) (5D, 7F)
 Ernie: Thresh=  0.10000D-02 Tol=  0.10000D-05 Strict=F.
 There are    24 symmetry adapted cartesian basis functions of A   symmetry.
 There are    19 symmetry adapted cartesian basis functions of B1  symmetry.
 There are    19 symmetry adapted cartesian basis functions of B2  symmetry.
 There are    19 symmetry adapted cartesian basis functions of B3  symmetry.
 There are    22 symmetry adapted basis functions of A   symmetry.
 There are    19 symmetry adapted basis functions of B1  symmetry.
 There are    19 symmetry adapted basis functions of B2  symmetry.
 There are    19 symmetry adapted basis functions of B3  symmetry.
    79 basis functions,   102 primitive gaussians,    81 cartesian basis functions
     5 alpha electrons        5 beta electrons
       nuclear repulsion energy        13.6865179973 Hartrees.
 IExCor=  402 DFT=T Ex+Corr=B3LYP ExCW=0 ScaHFX=  0.200000
 ScaDFX=  0.800000  0.720000  1.000000  0.810000 ScalE2=  1.000000  1.000000
 IRadAn=      5 IRanWt=     -1 IRanGd=            0 ICorTp=0 IEmpDi=  4
 NAtoms=    5 NActive=    5 NUniq=    2 SFac= 4.00D+00 NAtFMM=   60 NAOKFM=F Big=F
 Integral buffers will be    131072 words long.
 Raffenetti 2 integral format.
 Two-electron integral symmetry is turned on.
 Leave Link  301 at Fri Sep  6 16:34:03 2024, MaxMem=   536870912 cpu:               0.1 elap:               0.0
 (Enter /Users/asuyarger/Applications/G16/g16/l302.exe)
 NPDir=0 NMtPBC=     1 NCelOv=     1 NCel=       1 NClECP=     1 NCelD=      1
         NCelK=      1 NCelE2=     1 NClLst=     1 CellRange=     0.0.
 One-electron integrals computed using PRISM.
 One-electron integral symmetry used in STVInt
 NBasis=    79 RedAO= T EigKep=  2.67D-04  NBF=    22    19    19    19
 NBsUse=    79 1.00D-06 EigRej= -1.00D+00 NBFU=    22    19    19    19
 Precomputing XC quadrature grid using
 IXCGrd= 4 IRadAn=           5 IRanWt=          -1 IRanGd=           0 AccXCQ= 0.00D+00.
 Generated NRdTot=       0 NPtTot=           0 NUsed=           0 NTot=          32
 NSgBfM=    81    81    81    81    81 MxSgAt=     5 MxSgA2=     5.
 Leave Link  302 at Fri Sep  6 16:34:03 2024, MaxMem=   536870912 cpu:               0.4 elap:               0.1
 (Enter /Users/asuyarger/Applications/G16/g16/l303.exe)
 DipDrv:  MaxL=1.
 Leave Link  303 at Fri Sep  6 16:34:03 2024, MaxMem=   536870912 cpu:               0.1 elap:               0.0
 (Enter /Users/asuyarger/Applications/G16/g16/l401.exe)
 ExpMin= 3.60D-02 ExpMax= 4.56D+03 ExpMxC= 6.82D+02 IAcc=3 IRadAn=         5 AccDes= 0.00D+00
 Harris functional with IExCor=  402 and IRadAn=       5 diagonalized for initial guess.
 HarFok:  IExCor=  402 AccDes= 0.00D+00 IRadAn=         5 IDoV= 1 UseB2=F ITyADJ=14
 ICtDFT=  3500011 ScaDFX=  1.000000  1.000000  1.000000  1.000000
 FoFCou: FMM=F IPFlag=           0 FMFlag=      100000 FMFlg1=           0
         NFxFlg=           0 DoJE=T BraDBF=F KetDBF=T FulRan=T
         wScrn=  0.000000 ICntrl=       500 IOpCl=  0 I1Cent=   200000004 NGrid=           0
         NMat0=    1 NMatS0=      1 NMatT0=    0 NMatD0=    1 NMtDS0=    0 NMtDT0=    0
 Petite list used in FoFCou.
 Harris En= -40.5908151859358    
 JPrj=0 DoOrth=F DoCkMO=F.
 Initial guess orbital symmetries:
       Occupied  (A1) (A1) (T2) (T2) (T2)
       Virtual   (A1) (T2) (T2) (T2) (T2) (T2) (T2) (A1) (T2) (T2)
                 (T2) (E) (E) (A1) (T2) (T2) (T2) (T2) (T2) (T2)
                 (T1) (T1) (T1) (A1) (T2) (T2) (T2) (A1) (T2) (T2)
                 (T2) (E) (E) (A1) (T2) (T2) (T2) (T1) (T1) (T1)
                 (T2) (T2) (T2) (T2) (T2) (T2) (E) (E) (A1) (T2)
                 (T2) (T2) (A1) (T2) (T2) (T2) (E) (E) (T2) (T2)
                 (T2) (T1) (T1) (T1) (T2) (T2) (T2) (E) (E) (A1)
                 (T2) (T2) (T2) (A1)
 The electronic state of the initial guess is 1-A1.
 Leave Link  401 at Fri Sep  6 16:34:04 2024, MaxMem=   536870912 cpu:               0.5 elap:               0.1
 (Enter /Users/asuyarger/Applications/G16/g16/l502.exe)
 Keep R1 ints in memory in symmetry-blocked form, NReq=8622477.
 FoFCou: FMM=F IPFlag=           0 FMFlag=           0 FMFlg1=           0
         NFxFlg=           0 DoJE=F BraDBF=F KetDBF=F FulRan=T
         wScrn=  0.000000 ICntrl=       600 IOpCl=  0 I1Cent=           0 NGrid=           0
         NMat0=    1 NMatS0=   3160 NMatT0=    0 NMatD0=    1 NMtDS0=    0 NMtDT0=    0
 Petite list used in FoFCou.
 Closed shell SCF:
 Using DIIS extrapolation, IDIIS=  1040.
 NGot=   536870912 LenX=   535596737 LenY=   535589735
 Requested convergence on RMS density matrix=1.00D-08 within 128 cycles.
 Requested convergence on MAX density matrix=1.00D-06.
 Requested convergence on             energy=1.00D-06.
 No special actions if energy rises.

 Cycle   1  Pass 1  IDiag  1:
 E= -40.4281978057219    
 DIIS: error= 5.23D-02 at cycle   1 NSaved=   1.
 NSaved= 1 IEnMin= 1 EnMin= -40.4281978057219     IErMin= 1 ErrMin= 5.23D-02
 ErrMax= 5.23D-02  0.00D+00 EMaxC= 1.00D-01 BMatC= 1.11D-01 BMatP= 1.11D-01
 IDIUse=3 WtCom= 4.77D-01 WtEn= 5.23D-01
 Coeff-Com:  0.100D+01
 Coeff-En:   0.100D+01
 Coeff:      0.100D+01
 Gap=     0.277 Goal=   None    Shift=    0.000
 GapD=    0.277 DampG=1.000 DampE=0.500 DampFc=0.5000 IDamp=-1.
 Damping current iteration by 5.00D-01
 RMSDP=4.49D-03 MaxDP=1.61D-01              OVMax= 2.16D-01

 Cycle   2  Pass 1  IDiag  1:
 E= -40.4766281443256     Delta-E=       -0.048430338604 Rises=F Damp=T
 DIIS: error= 7.13D-03 at cycle   2 NSaved=   2.
 NSaved= 2 IEnMin= 2 EnMin= -40.4766281443256     IErMin= 2 ErrMin= 7.13D-03
 ErrMax= 7.13D-03  0.00D+00 EMaxC= 1.00D-01 BMatC= 2.11D-03 BMatP= 1.11D-01
 IDIUse=3 WtCom= 9.29D-01 WtEn= 7.13D-02
 Coeff-Com:  0.620D-01 0.938D+00
 Coeff-En:   0.134D+00 0.866D+00
 Coeff:      0.672D-01 0.933D+00
 Gap=     0.388 Goal=   None    Shift=    0.000
 RMSDP=4.45D-04 MaxDP=5.46D-03 DE=-4.84D-02 OVMax= 1.18D-01

 Cycle   3  Pass 1  IDiag  1:
 E= -40.5355060673479     Delta-E=       -0.058877923022 Rises=F Damp=F
 DIIS: error= 9.18D-04 at cycle   3 NSaved=   3.
 NSaved= 3 IEnMin= 3 EnMin= -40.5355060673479     IErMin= 3 ErrMin= 9.18D-04
 ErrMax= 9.18D-04  0.00D+00 EMaxC= 1.00D-01 BMatC= 2.43D-05 BMatP= 2.11D-03
 IDIUse=3 WtCom= 9.91D-01 WtEn= 9.18D-03
 Coeff-Com: -0.126D-01 0.111D-01 0.100D+01
 Coeff-En:   0.000D+00 0.000D+00 0.100D+01
 Coeff:     -0.125D-01 0.110D-01 0.100D+01
 Gap=     0.394 Goal=   None    Shift=    0.000
 RMSDP=6.75D-05 MaxDP=1.53D-03 DE=-5.89D-02 OVMax= 2.12D-03

 Cycle   4  Pass 1  IDiag  1:
 E= -40.5355347467008     Delta-E=       -0.000028679353 Rises=F Damp=F
 DIIS: error= 1.55D-04 at cycle   4 NSaved=   4.
 NSaved= 4 IEnMin= 4 EnMin= -40.5355347467008     IErMin= 4 ErrMin= 1.55D-04
 ErrMax= 1.55D-04  0.00D+00 EMaxC= 1.00D-01 BMatC= 7.00D-07 BMatP= 2.43D-05
 IDIUse=3 WtCom= 9.98D-01 WtEn= 1.55D-03
 Coeff-Com:  0.153D-02-0.241D-02 0.491D-01 0.952D+00
 Coeff-En:   0.000D+00 0.000D+00 0.000D+00 0.100D+01
 Coeff:      0.153D-02-0.241D-02 0.491D-01 0.952D+00
 Gap=     0.394 Goal=   None    Shift=    0.000
 RMSDP=6.67D-06 MaxDP=2.07D-04 DE=-2.87D-05 OVMax= 2.79D-04

 Cycle   5  Pass 1  IDiag  1:
 E= -40.5355355068197     Delta-E=       -0.000000760119 Rises=F Damp=F
 DIIS: error= 1.35D-06 at cycle   5 NSaved=   5.
 NSaved= 5 IEnMin= 5 EnMin= -40.5355355068197     IErMin= 5 ErrMin= 1.35D-06
 ErrMax= 1.35D-06  0.00D+00 EMaxC= 1.00D-01 BMatC= 1.08D-10 BMatP= 7.00D-07
 IDIUse=1 WtCom= 1.00D+00 WtEn= 0.00D+00
 Coeff-Com: -0.185D-04-0.414D-04-0.868D-03-0.751D-03 0.100D+01
 Coeff:     -0.185D-04-0.414D-04-0.868D-03-0.751D-03 0.100D+01
 Gap=     0.394 Goal=   None    Shift=    0.000
 RMSDP=3.35D-07 MaxDP=9.09D-06 DE=-7.60D-07 OVMax= 4.40D-06

 Cycle   6  Pass 1  IDiag  1:
 E= -40.5355355069515     Delta-E=       -0.000000000132 Rises=F Damp=F
 DIIS: error= 1.47D-07 at cycle   6 NSaved=   6.
 NSaved= 6 IEnMin= 6 EnMin= -40.5355355069515     IErMin= 6 ErrMin= 1.47D-07
 ErrMax= 1.47D-07  0.00D+00 EMaxC= 1.00D-01 BMatC= 9.04D-13 BMatP= 1.08D-10
 IDIUse=1 WtCom= 1.00D+00 WtEn= 0.00D+00
 Coeff-Com:  0.659D-06-0.445D-05-0.830D-04-0.138D-02-0.275D-01 0.103D+01
 Coeff:      0.659D-06-0.445D-05-0.830D-04-0.138D-02-0.275D-01 0.103D+01
 Gap=     0.394 Goal=   None    Shift=    0.000
 RMSDP=1.55D-08 MaxDP=3.62D-07 DE=-1.32D-10 OVMax= 3.00D-07

 Cycle   7  Pass 1  IDiag  1:
 E= -40.5355355069517     Delta-E=       -0.000000000000 Rises=F Damp=F
 DIIS: error= 8.28D-09 at cycle   7 NSaved=   7.
 NSaved= 7 IEnMin= 7 EnMin= -40.5355355069517     IErMin= 7 ErrMin= 8.28D-09
 ErrMax= 8.28D-09  0.00D+00 EMaxC= 1.00D-01 BMatC= 1.81D-15 BMatP= 9.04D-13
 IDIUse=1 WtCom= 1.00D+00 WtEn= 0.00D+00
 Coeff-Com: -0.324D-07 0.143D-06 0.834D-05-0.358D-04-0.196D-02 0.185D-02
 Coeff-Com:  0.100D+01
 Coeff:     -0.324D-07 0.143D-06 0.834D-05-0.358D-04-0.196D-02 0.185D-02
 Coeff:      0.100D+01
 Gap=     0.394 Goal=   None    Shift=    0.000
 RMSDP=7.58D-10 MaxDP=1.07D-08 DE=-1.85D-13 OVMax= 1.79D-08

 SCF Done:  E(RB3LYP) =  -40.5355355070     A.U. after    7 cycles
            NFock=  7  Conv=0.76D-09     -V/T= 2.0034
 KE= 4.039975733385D+01 PE=-1.207160743445D+02 EE= 2.609426350642D+01
 Leave Link  502 at Fri Sep  6 16:34:04 2024, MaxMem=   536870912 cpu:               1.4 elap:               0.4
 (Enter /Users/asuyarger/Applications/G16/g16/l601.exe)
 Copying SCF densities to generalized density rwf, IOpCl= 0 IROHF=0.

 **********************************************************************

            Population analysis using the SCF density.

 **********************************************************************

 Orbital symmetries:
       Occupied  (A1) (A1) (T2) (T2) (T2)
       Virtual   (A1) (T2) (T2) (T2) (T2) (T2) (T2) (A1) (T2) (T2)
                 (T2) (E) (E) (A1) (T2) (T2) (T2) (T1) (T1) (T1)
                 (A1) (T2) (T2) (T2) (T2) (T2) (T2) (T2) (T2) (T2)
                 (A1) (E) (E) (A1) (T2) (T2) (T2) (T1) (T1) (T1)
                 (T2) (T2) (T2) (E) (E) (T2) (T2) (T2) (A1) (T2)
                 (T2) (T2) (A1) (T2) (T2) (T2) (E) (E) (T2) (T2)
                 (T2) (T1) (T1) (T1) (T2) (T2) (T2) (E) (E) (A1)
                 (T2) (T2) (T2) (A1)
 The electronic state is 1-A1.
 Alpha  occ. eigenvalues --  -10.14252  -0.70274  -0.39888  -0.39888  -0.39888
 Alpha virt. eigenvalues --   -0.00465   0.03878   0.03878   0.03878   0.09033
 Alpha virt. eigenvalues --    0.09033   0.09033   0.11703   0.18843   0.18843
 Alpha virt. eigenvalues --    0.18843   0.27470   0.27470   0.27549   0.34582
 Alpha virt. eigenvalues --    0.34582   0.34582   0.51349   0.51349   0.51349
 Alpha virt. eigenvalues --    0.54237   0.54676   0.54676   0.54676   0.76670
 Alpha virt. eigenvalues --    0.76670   0.76670   0.80696   0.80696   0.80696
 Alpha virt. eigenvalues --    0.83169   0.95559   0.95559   1.04847   1.26964
 Alpha virt. eigenvalues --    1.26964   1.26964   1.78981   1.78981   1.78981
 Alpha virt. eigenvalues --    1.91498   1.91498   1.91498   2.32104   2.32104
 Alpha virt. eigenvalues --    2.34893   2.34893   2.34893   2.65424   2.83531
 Alpha virt. eigenvalues --    2.83531   2.83531   3.19762   3.39009   3.39009
 Alpha virt. eigenvalues --    3.39009   3.50245   3.50245   4.20155   4.20155
 Alpha virt. eigenvalues --    4.20155   8.29539   8.29539   8.29539   8.34396
 Alpha virt. eigenvalues --    8.34396   8.34396   8.41767   8.41767   8.45197
 Alpha virt. eigenvalues --    8.66954   8.66954   8.66954  24.13692
     Molecular Orbital Coefficients:
                           1         2         3         4         5
                        (A1)--O   (A1)--O   (T2)--O   (T2)--O   (T2)--O
     Eigenvalues --   -10.14252  -0.70274  -0.39888  -0.39888  -0.39888
   1 1   C  1S          0.56290  -0.10948   0.00000   0.00000   0.00000
   2        2S          0.46292  -0.16999   0.00000   0.00000   0.00000
   3        2PX         0.00000   0.00000   0.20861   0.00000   0.00000
   4        2PY         0.00000   0.00000   0.00000   0.00000   0.20861
   5        2PZ         0.00000   0.00000   0.00000   0.20861   0.00000
   6        3S          0.02137   0.44300   0.00000   0.00000   0.00000
   7        3PX         0.00000   0.00000   0.28770   0.00000   0.00000
   8        3PY         0.00000   0.00000   0.00000   0.00000   0.28770
   9        3PZ         0.00000   0.00000   0.00000   0.28770   0.00000
  10        4S         -0.00802   0.19163   0.00000   0.00000   0.00000
  11        4PX         0.00000   0.00000   0.17051   0.00000   0.00000
  12        4PY         0.00000   0.00000   0.00000   0.00000   0.17051
  13        4PZ         0.00000   0.00000   0.00000   0.17051   0.00000
  14        5S         -0.01442  -0.02481   0.00000   0.00000   0.00000
  15        5PX         0.00000   0.00000  -0.00160   0.00000   0.00000
  16        5PY         0.00000   0.00000   0.00000   0.00000  -0.00160
  17        5PZ         0.00000   0.00000   0.00000  -0.00160   0.00000
  18        6D 0        0.00000   0.00000   0.00000   0.00000   0.00000
  19        6D+1        0.00000   0.00000   0.00000   0.00000   0.01543
  20        6D-1        0.00000   0.00000   0.01543   0.00000   0.00000
  21        6D+2       -0.00000  -0.00000   0.00000   0.00000   0.00000
  22        6D-2        0.00000   0.00000   0.00000   0.01543   0.00000
  23        7D 0       -0.00000  -0.00000   0.00000   0.00000   0.00000
  24        7D+1        0.00000   0.00000   0.00000   0.00000   0.00737
  25        7D-1        0.00000   0.00000   0.00737   0.00000   0.00000
  26        7D+2       -0.00000   0.00000   0.00000   0.00000   0.00000
  27        7D-2        0.00000   0.00000   0.00000   0.00737   0.00000
  28 2   H  1S          0.00037   0.08779   0.10739   0.10739   0.10739
  29        2S         -0.00455   0.10426   0.15211   0.15211   0.15211
  30        3S          0.00539   0.02688   0.08103   0.08103   0.08103
  31        4S          0.00171   0.00460   0.01288   0.01288   0.01288
  32        5PX        -0.00019  -0.00176  -0.00070  -0.00230  -0.00230
  33        5PY        -0.00019  -0.00176  -0.00230  -0.00230  -0.00070
  34        5PZ        -0.00019  -0.00176  -0.00230  -0.00070  -0.00230
  35        6PX         0.00154  -0.00685   0.00250  -0.00772  -0.00772
  36        6PY         0.00154  -0.00685  -0.00772  -0.00772   0.00250
  37        6PZ         0.00154  -0.00685  -0.00772   0.00250  -0.00772
  38        7PX        -0.00015  -0.00541   0.00104  -0.00570  -0.00570
  39        7PY        -0.00015  -0.00541  -0.00570  -0.00570   0.00104
  40        7PZ        -0.00015  -0.00541  -0.00570   0.00104  -0.00570
  41 3   H  1S          0.00037   0.08779  -0.10739   0.10739  -0.10739
  42        2S         -0.00455   0.10426  -0.15211   0.15211  -0.15211
  43        3S          0.00539   0.02688  -0.08103   0.08103  -0.08103
  44        4S          0.00171   0.00460  -0.01288   0.01288  -0.01288
  45        5PX         0.00019   0.00176  -0.00070   0.00230  -0.00230
  46        5PY         0.00019   0.00176  -0.00230   0.00230  -0.00070
  47        5PZ        -0.00019  -0.00176   0.00230  -0.00070   0.00230
  48        6PX        -0.00154   0.00685   0.00250   0.00772  -0.00772
  49        6PY        -0.00154   0.00685  -0.00772   0.00772   0.00250
  50        6PZ         0.00154  -0.00685   0.00772   0.00250   0.00772
  51        7PX         0.00015   0.00541   0.00104   0.00570  -0.00570
  52        7PY         0.00015   0.00541  -0.00570   0.00570   0.00104
  53        7PZ        -0.00015  -0.00541   0.00570   0.00104   0.00570
  54 4   H  1S          0.00037   0.08779  -0.10739  -0.10739   0.10739
  55        2S         -0.00455   0.10426  -0.15211  -0.15211   0.15211
  56        3S          0.00539   0.02688  -0.08103  -0.08103   0.08103
  57        4S          0.00171   0.00460  -0.01288  -0.01288   0.01288
  58        5PX         0.00019   0.00176  -0.00070  -0.00230   0.00230
  59        5PY        -0.00019  -0.00176   0.00230   0.00230  -0.00070
  60        5PZ         0.00019   0.00176  -0.00230  -0.00070   0.00230
  61        6PX        -0.00154   0.00685   0.00250  -0.00772   0.00772
  62        6PY         0.00154  -0.00685   0.00772   0.00772   0.00250
  63        6PZ        -0.00154   0.00685  -0.00772   0.00250   0.00772
  64        7PX         0.00015   0.00541   0.00104  -0.00570   0.00570
  65        7PY        -0.00015  -0.00541   0.00570   0.00570   0.00104
  66        7PZ         0.00015   0.00541  -0.00570   0.00104   0.00570
  67 5   H  1S          0.00037   0.08779   0.10739  -0.10739  -0.10739
  68        2S         -0.00455   0.10426   0.15211  -0.15211  -0.15211
  69        3S          0.00539   0.02688   0.08103  -0.08103  -0.08103
  70        4S          0.00171   0.00460   0.01288  -0.01288  -0.01288
  71        5PX        -0.00019  -0.00176  -0.00070   0.00230   0.00230
  72        5PY         0.00019   0.00176   0.00230  -0.00230  -0.00070
  73        5PZ         0.00019   0.00176   0.00230  -0.00070  -0.00230
  74        6PX         0.00154  -0.00685   0.00250   0.00772   0.00772
  75        6PY        -0.00154   0.00685   0.00772  -0.00772   0.00250
  76        6PZ        -0.00154   0.00685   0.00772   0.00250  -0.00772
  77        7PX        -0.00015  -0.00541   0.00104   0.00570   0.00570
  78        7PY         0.00015   0.00541   0.00570  -0.00570   0.00104
  79        7PZ         0.00015   0.00541   0.00570   0.00104  -0.00570
                           6         7         8         9        10
                        (A1)--V   (T2)--V   (T2)--V   (T2)--V   (T2)--V
     Eigenvalues --    -0.00465   0.03878   0.03878   0.03878   0.09033
   1 1   C  1S         -0.03502   0.00000   0.00000   0.00000   0.00000
   2        2S         -0.05667   0.00000   0.00000   0.00000   0.00000
   3        2PX         0.00000  -0.07154   0.00000   0.00000   0.00000
   4        2PY         0.00000   0.00000   0.00000  -0.07154   0.00949
   5        2PZ         0.00000   0.00000  -0.07154   0.00000   0.00000
   6        3S          0.16002   0.00000   0.00000   0.00000   0.00000
   7        3PX         0.00000  -0.08398   0.00000   0.00000   0.00000
   8        3PY         0.00000   0.00000   0.00000  -0.08398   0.02044
   9        3PZ         0.00000   0.00000  -0.08398   0.00000   0.00000
  10        4S          1.01821   0.00000   0.00000   0.00000   0.00000
  11        4PX         0.00000   0.47871   0.00000   0.00000   0.00000
  12        4PY         0.00000   0.00000   0.00000   0.47871   0.74092
  13        4PZ         0.00000   0.00000   0.47871   0.00000   0.00000
  14        5S          4.53397   0.00000   0.00000   0.00000   0.00000
  15        5PX         0.00000  -0.79460   0.00000   0.00000   0.00000
  16        5PY         0.00000   0.00000   0.00000  -0.79460   3.50034
  17        5PZ         0.00000   0.00000  -0.79460   0.00000   0.00000
  18        6D 0        0.00000   0.00000   0.00000   0.00000   0.00000
  19        6D+1        0.00000   0.00000   0.00000  -0.00406  -0.01521
  20        6D-1        0.00000  -0.00406   0.00000   0.00000   0.00000
  21        6D+2       -0.00000   0.00000   0.00000   0.00000   0.00000
  22        6D-2        0.00000   0.00000  -0.00406   0.00000   0.00000
  23        7D 0       -0.00000   0.00000   0.00000   0.00000   0.00000
  24        7D+1        0.00000   0.00000   0.00000   0.06688  -0.01213
  25        7D-1        0.00000   0.06688   0.00000   0.00000   0.00000
  26        7D+2       -0.00000   0.00000   0.00000   0.00000   0.00000
  27        7D-2        0.00000   0.00000   0.06688   0.00000   0.00000
  28 2   H  1S          0.00216  -0.01073  -0.01073  -0.01073  -0.03360
  29        2S         -0.02150  -0.10571  -0.10571  -0.10571  -0.08943
  30        3S         -0.53480  -0.55477  -0.55477  -0.55477  -1.22546
  31        4S         -1.18324   2.29524   2.29524   2.29524  -2.78707
  32        5PX        -0.00077   0.00039   0.00088   0.00088   0.00037
  33        5PY        -0.00077   0.00088   0.00088   0.00039   0.00041
  34        5PZ        -0.00077   0.00088   0.00039   0.00088   0.00037
  35        6PX        -0.00543   0.00522   0.00525   0.00525  -0.00996
  36        6PY        -0.00543   0.00525   0.00525   0.00522   0.00883
  37        6PZ        -0.00543   0.00525   0.00522   0.00525  -0.00996
  38        7PX         0.02367   0.06812   0.09812   0.09812   0.09711
  39        7PY         0.02367   0.09812   0.09812   0.06812   0.03771
  40        7PZ         0.02367   0.09812   0.06812   0.09812   0.09711
  41 3   H  1S          0.00216   0.01073  -0.01073   0.01073   0.03360
  42        2S         -0.02150   0.10571  -0.10571   0.10571   0.08943
  43        3S         -0.53480   0.55477  -0.55477   0.55477   1.22546
  44        4S         -1.18324  -2.29524   2.29524  -2.29524   2.78707
  45        5PX         0.00077   0.00039  -0.00088   0.00088   0.00037
  46        5PY         0.00077   0.00088  -0.00088   0.00039   0.00041
  47        5PZ        -0.00077  -0.00088   0.00039  -0.00088  -0.00037
  48        6PX         0.00543   0.00522  -0.00525   0.00525  -0.00996
  49        6PY         0.00543   0.00525  -0.00525   0.00522   0.00883
  50        6PZ        -0.00543  -0.00525   0.00522  -0.00525   0.00996
  51        7PX        -0.02367   0.06812  -0.09812   0.09812   0.09711
  52        7PY        -0.02367   0.09812  -0.09812   0.06812   0.03771
  53        7PZ         0.02367  -0.09812   0.06812  -0.09812  -0.09711
  54 4   H  1S          0.00216   0.01073   0.01073  -0.01073  -0.03360
  55        2S         -0.02150   0.10571   0.10571  -0.10571  -0.08943
  56        3S         -0.53480   0.55477   0.55477  -0.55477  -1.22546
  57        4S         -1.18324  -2.29524  -2.29524   2.29524  -2.78707
  58        5PX         0.00077   0.00039   0.00088  -0.00088  -0.00037
  59        5PY        -0.00077  -0.00088  -0.00088   0.00039   0.00041
  60        5PZ         0.00077   0.00088   0.00039  -0.00088  -0.00037
  61        6PX         0.00543   0.00522   0.00525  -0.00525   0.00996
  62        6PY        -0.00543  -0.00525  -0.00525   0.00522   0.00883
  63        6PZ         0.00543   0.00525   0.00522  -0.00525   0.00996
  64        7PX        -0.02367   0.06812   0.09812  -0.09812  -0.09711
  65        7PY         0.02367  -0.09812  -0.09812   0.06812   0.03771
  66        7PZ        -0.02367   0.09812   0.06812  -0.09812  -0.09711
  67 5   H  1S          0.00216  -0.01073   0.01073   0.01073   0.03360
  68        2S         -0.02150  -0.10571   0.10571   0.10571   0.08943
  69        3S         -0.53480  -0.55477   0.55477   0.55477   1.22546
  70        4S         -1.18324   2.29524  -2.29524  -2.29524   2.78707
  71        5PX        -0.00077   0.00039  -0.00088  -0.00088  -0.00037
  72        5PY         0.00077  -0.00088   0.00088   0.00039   0.00041
  73        5PZ         0.00077  -0.00088   0.00039   0.00088   0.00037
  74        6PX        -0.00543   0.00522  -0.00525  -0.00525   0.00996
  75        6PY         0.00543  -0.00525   0.00525   0.00522   0.00883
  76        6PZ         0.00543  -0.00525   0.00522   0.00525  -0.00996
  77        7PX         0.02367   0.06812  -0.09812  -0.09812  -0.09711
  78        7PY        -0.02367  -0.09812   0.09812   0.06812   0.03771
  79        7PZ        -0.02367  -0.09812   0.06812   0.09812   0.09711
                          11        12        13        14        15
                        (T2)--V   (T2)--V   (A1)--V   (T2)--V   (T2)--V
     Eigenvalues --     0.09033   0.09033   0.11703   0.18843   0.18843
   1 1   C  1S          0.00000   0.00000   0.04514   0.00000   0.00000
   2        2S          0.00000   0.00000   0.07642   0.00000   0.00000
   3        2PX         0.00000   0.00949   0.00000   0.00000   0.15913
   4        2PY         0.00000   0.00000   0.00000   0.00000   0.00000
   5        2PZ         0.00949   0.00000   0.00000   0.15913   0.00000
   6        3S          0.00000   0.00000  -0.29766   0.00000   0.00000
   7        3PX         0.00000   0.02044   0.00000   0.00000   0.30184
   8        3PY         0.00000   0.00000   0.00000   0.00000   0.00000
   9        3PZ         0.02044   0.00000   0.00000   0.30184   0.00000
  10        4S          0.00000   0.00000   3.26205   0.00000   0.00000
  11        4PX         0.00000   0.74092   0.00000   0.00000   2.56729
  12        4PY         0.00000   0.00000   0.00000   0.00000   0.00000
  13        4PZ         0.74092   0.00000   0.00000   2.56729   0.00000
  14        5S          0.00000   0.00000  16.87711   0.00000   0.00000
  15        5PX         0.00000   3.50034   0.00000   0.00000  -1.85718
  16        5PY         0.00000   0.00000   0.00000   0.00000   0.00000
  17        5PZ         3.50034   0.00000   0.00000  -1.85718   0.00000
  18        6D 0        0.00000   0.00000   0.00000   0.00000   0.00000
  19        6D+1        0.00000   0.00000   0.00000   0.00000   0.00000
  20        6D-1        0.00000  -0.01521   0.00000   0.00000  -0.01569
  21        6D+2        0.00000   0.00000  -0.00000   0.00000   0.00000
  22        6D-2       -0.01521   0.00000   0.00000  -0.01569   0.00000
  23        7D 0        0.00000   0.00000  -0.00000   0.00000   0.00000
  24        7D+1        0.00000   0.00000   0.00000   0.00000   0.00000
  25        7D-1        0.00000  -0.01213   0.00000   0.00000   0.17388
  26        7D+2        0.00000   0.00000  -0.00000   0.00000   0.00000
  27        7D-2       -0.01213   0.00000   0.00000   0.17388   0.00000
  28 2   H  1S         -0.03360  -0.03360   0.00554  -0.01341  -0.01341
  29        2S         -0.08943  -0.08943  -0.08509  -0.35964  -0.35964
  30        3S         -1.22546  -1.22546  -2.34411  -2.29684  -2.29684
  31        4S         -2.78707  -2.78707  -3.07695   2.97806   2.97806
  32        5PX         0.00037   0.00041   0.00178  -0.00286  -0.00040
  33        5PY         0.00037   0.00037   0.00178  -0.00286  -0.00286
  34        5PZ         0.00041   0.00037   0.00178  -0.00040  -0.00286
  35        6PX        -0.00996   0.00883   0.00229  -0.00246   0.00914
  36        6PY        -0.00996  -0.00996   0.00229  -0.00246  -0.00246
  37        6PZ         0.00883  -0.00996   0.00229   0.00914  -0.00246
  38        7PX         0.09711   0.03771   0.21999   0.21852   0.14256
  39        7PY         0.09711   0.09711   0.21999   0.21852   0.21852
  40        7PZ         0.03771   0.09711   0.21999   0.14256   0.21852
  41 3   H  1S         -0.03360   0.03360   0.00554  -0.01341   0.01341
  42        2S         -0.08943   0.08943  -0.08509  -0.35964   0.35964
  43        3S         -1.22546   1.22546  -2.34411  -2.29684   2.29684
  44        4S         -2.78707   2.78707  -3.07695   2.97806  -2.97806
  45        5PX        -0.00037   0.00041  -0.00178   0.00286  -0.00040
  46        5PY        -0.00037   0.00037  -0.00178   0.00286  -0.00286
  47        5PZ         0.00041  -0.00037   0.00178  -0.00040   0.00286
  48        6PX         0.00996   0.00883  -0.00229   0.00246   0.00914
  49        6PY         0.00996  -0.00996  -0.00229   0.00246  -0.00246
  50        6PZ         0.00883   0.00996   0.00229   0.00914   0.00246
  51        7PX        -0.09711   0.03771  -0.21999  -0.21852   0.14256
  52        7PY        -0.09711   0.09711  -0.21999  -0.21852   0.21852
  53        7PZ         0.03771  -0.09711   0.21999   0.14256  -0.21852
  54 4   H  1S          0.03360   0.03360   0.00554   0.01341   0.01341
  55        2S          0.08943   0.08943  -0.08509   0.35964   0.35964
  56        3S          1.22546   1.22546  -2.34411   2.29684   2.29684
  57        4S          2.78707   2.78707  -3.07695  -2.97806  -2.97806
  58        5PX         0.00037   0.00041  -0.00178  -0.00286  -0.00040
  59        5PY        -0.00037  -0.00037   0.00178   0.00286   0.00286
  60        5PZ         0.00041   0.00037  -0.00178  -0.00040  -0.00286
  61        6PX        -0.00996   0.00883  -0.00229  -0.00246   0.00914
  62        6PY         0.00996   0.00996   0.00229   0.00246   0.00246
  63        6PZ         0.00883  -0.00996  -0.00229   0.00914  -0.00246
  64        7PX         0.09711   0.03771  -0.21999   0.21852   0.14256
  65        7PY        -0.09711  -0.09711   0.21999  -0.21852  -0.21852
  66        7PZ         0.03771   0.09711  -0.21999   0.14256   0.21852
  67 5   H  1S          0.03360  -0.03360   0.00554   0.01341  -0.01341
  68        2S          0.08943  -0.08943  -0.08509   0.35964  -0.35964
  69        3S          1.22546  -1.22546  -2.34411   2.29684  -2.29684
  70        4S          2.78707  -2.78707  -3.07695  -2.97806   2.97806
  71        5PX        -0.00037   0.00041   0.00178   0.00286  -0.00040
  72        5PY         0.00037  -0.00037  -0.00178  -0.00286   0.00286
  73        5PZ         0.00041  -0.00037  -0.00178  -0.00040   0.00286
  74        6PX         0.00996   0.00883   0.00229   0.00246   0.00914
  75        6PY        -0.00996   0.00996  -0.00229  -0.00246   0.00246
  76        6PZ         0.00883   0.00996  -0.00229   0.00914   0.00246
  77        7PX        -0.09711   0.03771   0.21999  -0.21852   0.14256
  78        7PY         0.09711  -0.09711  -0.21999   0.21852  -0.21852
  79        7PZ         0.03771  -0.09711  -0.21999   0.14256  -0.21852
                          16        17        18        19        20
                        (T2)--V   (E)--V    (E)--V    (A1)--V   (T2)--V
     Eigenvalues --     0.18843   0.27470   0.27470   0.27549   0.34582
   1 1   C  1S          0.00000  -0.00000  -0.00000  -0.05317   0.00000
   2        2S          0.00000  -0.00000  -0.00000  -0.08281   0.00000
   3        2PX         0.00000  -0.00000   0.00000   0.00000   0.00000
   4        2PY         0.15913  -0.00000   0.00000   0.00000   0.03075
   5        2PZ         0.00000  -0.00000   0.00000   0.00000   0.00000
   6        3S          0.00000  -0.00000  -0.00000  -0.00965   0.00000
   7        3PX         0.00000  -0.00000   0.00000   0.00000   0.00000
   8        3PY         0.30184  -0.00000   0.00000   0.00000  -0.01334
   9        3PZ         0.00000  -0.00000   0.00000   0.00000   0.00000
  10        4S          0.00000   0.00000   0.00000   9.77002   0.00000
  11        4PX         0.00000  -0.00000   0.00000   0.00000   0.00000
  12        4PY         2.56729  -0.00000   0.00000   0.00000  -3.21356
  13        4PZ         0.00000  -0.00000   0.00000   0.00000   0.00000
  14        5S          0.00000   0.00000   0.00000  19.90995   0.00000
  15        5PX         0.00000  -0.00000   0.00000   0.00000   0.00000
  16        5PY        -1.85718  -0.00000   0.00000   0.00000  -2.02807
  17        5PZ         0.00000  -0.00000   0.00000   0.00000   0.00000
  18        6D 0        0.00000   0.04399  -0.01095  -0.00000   0.00000
  19        6D+1       -0.01569  -0.00000   0.00000   0.00000  -0.02417
  20        6D-1        0.00000  -0.00000   0.00000   0.00000   0.00000
  21        6D+2        0.00000  -0.01095  -0.04399   0.00000   0.00000
  22        6D-2        0.00000  -0.00000   0.00000   0.00000   0.00000
  23        7D 0        0.00000  -0.15617   0.03886   0.00000   0.00000
  24        7D+1        0.17388  -0.00000   0.00000   0.00000  -0.21921
  25        7D-1        0.00000  -0.00000   0.00000   0.00000   0.00000
  26        7D+2        0.00000   0.03886   0.15617  -0.00000   0.00000
  27        7D-2        0.00000  -0.00000   0.00000   0.00000   0.00000
  28 2   H  1S         -0.01341  -0.00000  -0.00000  -0.02480  -0.08431
  29        2S         -0.35964  -0.00000  -0.00000  -0.42484  -0.02425
  30        3S         -2.29684  -0.00000  -0.00000  -5.25063   3.25782
  31        4S          2.97806  -0.00000  -0.00000  -2.73271   0.56834
  32        5PX        -0.00286  -0.00368  -0.00382  -0.00283  -0.00424
  33        5PY        -0.00040  -0.00146   0.00510  -0.00283   0.00484
  34        5PZ        -0.00286   0.00515  -0.00128  -0.00283  -0.00424
  35        6PX        -0.00246  -0.00327  -0.00339   0.00280   0.01437
  36        6PY         0.00914  -0.00130   0.00452   0.00280  -0.00717
  37        6PZ        -0.00246   0.00457  -0.00114   0.00280   0.01437
  38        7PX         0.21852  -0.31215  -0.32356   0.32798  -0.67797
  39        7PY         0.14256  -0.12414   0.43211   0.32798   0.08190
  40        7PZ         0.21852   0.43629  -0.10855   0.32798  -0.67797
  41 3   H  1S          0.01341  -0.00000  -0.00000  -0.02480   0.08431
  42        2S          0.35964  -0.00000  -0.00000  -0.42484   0.02425
  43        3S          2.29684  -0.00000  -0.00000  -5.25063  -3.25782
  44        4S         -2.97806  -0.00000  -0.00000  -2.73271  -0.56834
  45        5PX        -0.00286   0.00368   0.00382   0.00283  -0.00424
  46        5PY        -0.00040   0.00146  -0.00510   0.00283   0.00484
  47        5PZ         0.00286   0.00515  -0.00128  -0.00283   0.00424
  48        6PX        -0.00246   0.00327   0.00339  -0.00280   0.01437
  49        6PY         0.00914   0.00130  -0.00452  -0.00280  -0.00717
  50        6PZ         0.00246   0.00457  -0.00114   0.00280  -0.01437
  51        7PX         0.21852   0.31215   0.32356  -0.32798  -0.67797
  52        7PY         0.14256   0.12414  -0.43211  -0.32798   0.08190
  53        7PZ        -0.21852   0.43629  -0.10855   0.32798   0.67797
  54 4   H  1S         -0.01341  -0.00000  -0.00000  -0.02480  -0.08431
  55        2S         -0.35964  -0.00000  -0.00000  -0.42484  -0.02425
  56        3S         -2.29684  -0.00000  -0.00000  -5.25063   3.25782
  57        4S          2.97806  -0.00000  -0.00000  -2.73271   0.56834
  58        5PX         0.00286   0.00368   0.00382   0.00283   0.00424
  59        5PY        -0.00040  -0.00146   0.00510  -0.00283   0.00484
  60        5PZ         0.00286  -0.00515   0.00128   0.00283   0.00424
  61        6PX         0.00246   0.00327   0.00339  -0.00280  -0.01437
  62        6PY         0.00914  -0.00130   0.00452   0.00280  -0.00717
  63        6PZ         0.00246  -0.00457   0.00114  -0.00280  -0.01437
  64        7PX        -0.21852   0.31215   0.32356  -0.32798   0.67797
  65        7PY         0.14256  -0.12414   0.43211   0.32798   0.08190
  66        7PZ        -0.21852  -0.43629   0.10855  -0.32798   0.67797
  67 5   H  1S          0.01341  -0.00000  -0.00000  -0.02480   0.08431
  68        2S          0.35964  -0.00000  -0.00000  -0.42484   0.02425
  69        3S          2.29684  -0.00000  -0.00000  -5.25063  -3.25782
  70        4S         -2.97806  -0.00000  -0.00000  -2.73271  -0.56834
  71        5PX         0.00286  -0.00368  -0.00382  -0.00283   0.00424
  72        5PY        -0.00040   0.00146  -0.00510   0.00283   0.00484
  73        5PZ        -0.00286  -0.00515   0.00128   0.00283  -0.00424
  74        6PX         0.00246  -0.00327  -0.00339   0.00280  -0.01437
  75        6PY         0.00914   0.00130  -0.00452  -0.00280  -0.00717
  76        6PZ        -0.00246  -0.00457   0.00114  -0.00280   0.01437
  77        7PX        -0.21852  -0.31215  -0.32356   0.32798   0.67797
  78        7PY         0.14256   0.12414  -0.43211  -0.32798   0.08190
  79        7PZ         0.21852  -0.43629   0.10855  -0.32798  -0.67797
                          21        22        23        24        25
                        (T2)--V   (T2)--V   (T1)--V   (T1)--V   (T1)--V
     Eigenvalues --     0.34582   0.34582   0.51349   0.51349   0.51349
   1 1   C  1S          0.00000   0.00000   0.00000   0.00000   0.00000
   2        2S          0.00000   0.00000   0.00000   0.00000   0.00000
   3        2PX         0.03075   0.00000   0.00000   0.00000   0.00000
   4        2PY         0.00000   0.00000   0.00000   0.00000  -0.00000
   5        2PZ         0.00000   0.03075   0.00000  -0.00000   0.00000
   6        3S          0.00000   0.00000   0.00000   0.00000   0.00000
   7        3PX        -0.01334   0.00000   0.00000   0.00000   0.00000
   8        3PY         0.00000   0.00000   0.00000   0.00000  -0.00000
   9        3PZ         0.00000  -0.01334   0.00000  -0.00000   0.00000
  10        4S          0.00000   0.00000   0.00000   0.00000   0.00000
  11        4PX        -3.21356   0.00000  -0.00000   0.00000   0.00000
  12        4PY         0.00000   0.00000   0.00000   0.00000   0.00000
  13        4PZ         0.00000  -3.21356   0.00000   0.00000   0.00000
  14        5S          0.00000   0.00000   0.00000   0.00000   0.00000
  15        5PX        -2.02807   0.00000  -0.00000   0.00000   0.00000
  16        5PY         0.00000   0.00000   0.00000   0.00000  -0.00000
  17        5PZ         0.00000  -2.02807   0.00000  -0.00000   0.00000
  18        6D 0        0.00000   0.00000   0.00000   0.00000   0.00000
  19        6D+1        0.00000   0.00000   0.00000   0.00000  -0.00000
  20        6D-1       -0.02417   0.00000  -0.00000   0.00000   0.00000
  21        6D+2        0.00000   0.00000   0.00000   0.00000   0.00000
  22        6D-2        0.00000  -0.02417   0.00000  -0.00000   0.00000
  23        7D 0        0.00000   0.00000   0.00000   0.00000   0.00000
  24        7D+1        0.00000   0.00000   0.00000   0.00000   0.00000
  25        7D-1       -0.21921   0.00000   0.00000   0.00000   0.00000
  26        7D+2        0.00000   0.00000   0.00000   0.00000   0.00000
  27        7D-2        0.00000  -0.21921   0.00000   0.00000   0.00000
  28 2   H  1S         -0.08431  -0.08431  -0.00000   0.00000   0.00000
  29        2S         -0.02425  -0.02425   0.00000  -0.00000  -0.00000
  30        3S          3.25782   3.25782   0.00000  -0.00000  -0.00000
  31        4S          0.56834   0.56834   0.00000   0.00000   0.00000
  32        5PX         0.00484  -0.00424   0.00000   0.00820   0.00820
  33        5PY        -0.00424  -0.00424   0.00820  -0.00820   0.00000
  34        5PZ        -0.00424   0.00484  -0.00820   0.00000  -0.00820
  35        6PX        -0.00717   0.01437  -0.00000  -0.03249  -0.03249
  36        6PY         0.01437   0.01437  -0.03249   0.03249   0.00000
  37        6PZ         0.01437  -0.00717   0.03249  -0.00000   0.03249
  38        7PX         0.08190  -0.67797   0.00000   0.70674   0.70674
  39        7PY        -0.67797  -0.67797   0.70674  -0.70674   0.00000
  40        7PZ        -0.67797   0.08190  -0.70674   0.00000  -0.70674
  41 3   H  1S          0.08431  -0.08431   0.00000   0.00000  -0.00000
  42        2S          0.02425  -0.02425  -0.00000  -0.00000   0.00000
  43        3S         -3.25782   3.25782  -0.00000  -0.00000   0.00000
  44        4S         -0.56834   0.56834  -0.00000   0.00000  -0.00000
  45        5PX         0.00484   0.00424   0.00000  -0.00820   0.00820
  46        5PY        -0.00424   0.00424   0.00820   0.00820   0.00000
  47        5PZ         0.00424   0.00484   0.00820   0.00000   0.00820
  48        6PX        -0.00717  -0.01437  -0.00000   0.03249  -0.03249
  49        6PY         0.01437  -0.01437  -0.03249  -0.03249   0.00000
  50        6PZ        -0.01437  -0.00717  -0.03249  -0.00000  -0.03249
  51        7PX         0.08190   0.67797   0.00000  -0.70674   0.70674
  52        7PY        -0.67797   0.67797   0.70674   0.70674   0.00000
  53        7PZ         0.67797   0.08190   0.70674   0.00000   0.70674
  54 4   H  1S          0.08431   0.08431   0.00000  -0.00000   0.00000
  55        2S          0.02425   0.02425  -0.00000   0.00000  -0.00000
  56        3S         -3.25782  -3.25782  -0.00000   0.00000  -0.00000
  57        4S         -0.56834  -0.56834  -0.00000  -0.00000   0.00000
  58        5PX         0.00484  -0.00424   0.00000   0.00820  -0.00820
  59        5PY         0.00424   0.00424  -0.00820   0.00820   0.00000
  60        5PZ        -0.00424   0.00484  -0.00820   0.00000   0.00820
  61        6PX        -0.00717   0.01437  -0.00000  -0.03249   0.03249
  62        6PY        -0.01437  -0.01437   0.03249  -0.03249   0.00000
  63        6PZ         0.01437  -0.00717   0.03249  -0.00000  -0.03249
  64        7PX         0.08190  -0.67797   0.00000   0.70674  -0.70674
  65        7PY         0.67797   0.67797  -0.70674   0.70674   0.00000
  66        7PZ        -0.67797   0.08190  -0.70674   0.00000   0.70674
  67 5   H  1S         -0.08431   0.08431  -0.00000  -0.00000  -0.00000
  68        2S         -0.02425   0.02425   0.00000   0.00000   0.00000
  69        3S          3.25782  -3.25782   0.00000   0.00000   0.00000
  70        4S          0.56834  -0.56834   0.00000  -0.00000  -0.00000
  71        5PX         0.00484   0.00424   0.00000  -0.00820  -0.00820
  72        5PY         0.00424  -0.00424  -0.00820  -0.00820   0.00000
  73        5PZ         0.00424   0.00484   0.00820   0.00000  -0.00820
  74        6PX        -0.00717  -0.01437  -0.00000   0.03249   0.03249
  75        6PY        -0.01437   0.01437   0.03249   0.03249   0.00000
  76        6PZ        -0.01437  -0.00717  -0.03249  -0.00000   0.03249
  77        7PX         0.08190   0.67797   0.00000  -0.70674  -0.70674
  78        7PY         0.67797  -0.67797  -0.70674  -0.70674   0.00000
  79        7PZ         0.67797   0.08190   0.70674   0.00000  -0.70674
                          26        27        28        29        30
                        (A1)--V   (T2)--V   (T2)--V   (T2)--V   (T2)--V
     Eigenvalues --     0.54237   0.54676   0.54676   0.54676   0.76670
   1 1   C  1S          0.01729   0.00000   0.00000   0.00000   0.00000
   2        2S          0.03353   0.00000   0.00000   0.00000   0.00000
   3        2PX         0.00000   0.00000  -0.24997   0.00000   0.00000
   4        2PY         0.00000   0.00000   0.00000  -0.24997   0.09986
   5        2PZ         0.00000  -0.24997   0.00000   0.00000   0.00000
   6        3S         -0.23996   0.00000   0.00000   0.00000   0.00000
   7        3PX         0.00000   0.00000  -0.27252   0.00000   0.00000
   8        3PY         0.00000   0.00000   0.00000  -0.27252   0.31402
   9        3PZ         0.00000  -0.27252   0.00000   0.00000   0.00000
  10        4S         17.50615   0.00000   0.00000   0.00000   0.00000
  11        4PX         0.00000   0.00000   4.93245   0.00000   0.00000
  12        4PY         0.00000   0.00000   0.00000   4.93245   6.32617
  13        4PZ         0.00000   4.93245   0.00000   0.00000   0.00000
  14        5S         17.97858   0.00000   0.00000   0.00000   0.00000
  15        5PX         0.00000   0.00000  -1.65666   0.00000   0.00000
  16        5PY         0.00000   0.00000   0.00000  -1.65666   0.76273
  17        5PZ         0.00000  -1.65666   0.00000   0.00000   0.00000
  18        6D 0        0.00000   0.00000   0.00000   0.00000   0.00000
  19        6D+1        0.00000   0.00000   0.00000  -0.01821  -0.02645
  20        6D-1        0.00000   0.00000  -0.01821   0.00000   0.00000
  21        6D+2       -0.00000   0.00000   0.00000   0.00000   0.00000
  22        6D-2        0.00000  -0.01821   0.00000   0.00000   0.00000
  23        7D 0       -0.00000   0.00000   0.00000   0.00000   0.00000
  24        7D+1        0.00000   0.00000   0.00000   0.63510  -0.50031
  25        7D-1        0.00000   0.00000   0.63510   0.00000   0.00000
  26        7D+2        0.00000   0.00000   0.00000   0.00000   0.00000
  27        7D-2        0.00000   0.63510   0.00000   0.00000   0.00000
  28 2   H  1S          0.10894   0.04277   0.04277   0.04277  -0.04397
  29        2S         -0.19276  -0.78893  -0.78893  -0.78893  -1.02674
  30        3S         -6.92369  -3.89184  -3.89184  -3.89184  -2.96904
  31        4S         -2.29360   2.24421   2.24421   2.24421  -0.10921
  32        5PX         0.00331   0.00002   0.00513   0.00002   0.00518
  33        5PY         0.00331   0.00002   0.00002   0.00513   0.00111
  34        5PZ         0.00331   0.00513   0.00002   0.00002   0.00518
  35        6PX        -0.00988   0.03820   0.01853   0.03820  -0.03850
  36        6PY        -0.00988   0.03820   0.03820   0.01853   0.00452
  37        6PZ        -0.00988   0.01853   0.03820   0.03820  -0.03850
  38        7PX         1.09303   0.79847   0.99765   0.79847   1.16074
  39        7PY         1.09303   0.79847   0.79847   0.99765  -0.29466
  40        7PZ         1.09303   0.99765   0.79847   0.79847   1.16074
  41 3   H  1S          0.10894   0.04277  -0.04277  -0.04277   0.04397
  42        2S         -0.19276  -0.78893   0.78893   0.78893   1.02674
  43        3S         -6.92369  -3.89184   3.89184   3.89184   2.96904
  44        4S         -2.29360   2.24421  -2.24421  -2.24421   0.10921
  45        5PX        -0.00331  -0.00002   0.00513   0.00002   0.00518
  46        5PY        -0.00331  -0.00002   0.00002   0.00513   0.00111
  47        5PZ         0.00331   0.00513  -0.00002  -0.00002  -0.00518
  48        6PX         0.00988  -0.03820   0.01853   0.03820  -0.03850
  49        6PY         0.00988  -0.03820   0.03820   0.01853   0.00452
  50        6PZ        -0.00988   0.01853  -0.03820  -0.03820   0.03850
  51        7PX        -1.09303  -0.79847   0.99765   0.79847   1.16074
  52        7PY        -1.09303  -0.79847   0.79847   0.99765  -0.29466
  53        7PZ         1.09303   0.99765  -0.79847  -0.79847  -1.16074
  54 4   H  1S          0.10894  -0.04277  -0.04277   0.04277  -0.04397
  55        2S         -0.19276   0.78893   0.78893  -0.78893  -1.02674
  56        3S         -6.92369   3.89184   3.89184  -3.89184  -2.96904
  57        4S         -2.29360  -2.24421  -2.24421   2.24421  -0.10921
  58        5PX        -0.00331   0.00002   0.00513  -0.00002  -0.00518
  59        5PY         0.00331  -0.00002  -0.00002   0.00513   0.00111
  60        5PZ        -0.00331   0.00513   0.00002  -0.00002  -0.00518
  61        6PX         0.00988   0.03820   0.01853  -0.03820   0.03850
  62        6PY        -0.00988  -0.03820  -0.03820   0.01853   0.00452
  63        6PZ         0.00988   0.01853   0.03820  -0.03820   0.03850
  64        7PX        -1.09303   0.79847   0.99765  -0.79847  -1.16074
  65        7PY         1.09303  -0.79847  -0.79847   0.99765  -0.29466
  66        7PZ        -1.09303   0.99765   0.79847  -0.79847  -1.16074
  67 5   H  1S          0.10894  -0.04277   0.04277  -0.04277   0.04397
  68        2S         -0.19276   0.78893  -0.78893   0.78893   1.02674
  69        3S         -6.92369   3.89184  -3.89184   3.89184   2.96904
  70        4S         -2.29360  -2.24421   2.24421  -2.24421   0.10921
  71        5PX         0.00331  -0.00002   0.00513  -0.00002  -0.00518
  72        5PY        -0.00331   0.00002  -0.00002   0.00513   0.00111
  73        5PZ        -0.00331   0.00513  -0.00002   0.00002   0.00518
  74        6PX        -0.00988  -0.03820   0.01853  -0.03820   0.03850
  75        6PY         0.00988   0.03820  -0.03820   0.01853   0.00452
  76        6PZ         0.00988   0.01853  -0.03820   0.03820  -0.03850
  77        7PX         1.09303  -0.79847   0.99765  -0.79847  -1.16074
  78        7PY        -1.09303   0.79847  -0.79847   0.99765  -0.29466
  79        7PZ        -1.09303   0.99765  -0.79847   0.79847   1.16074
                          31        32        33        34        35
                        (T2)--V   (T2)--V   (T2)--V   (T2)--V   (T2)--V
     Eigenvalues --     0.76670   0.76670   0.80696   0.80696   0.80696
   1 1   C  1S          0.00000   0.00000   0.00000   0.00000   0.00000
   2        2S          0.00000   0.00000   0.00000   0.00000   0.00000
   3        2PX         0.09986   0.00000  -0.12447   0.00000   0.00000
   4        2PY         0.00000   0.00000   0.00000  -0.12447   0.00000
   5        2PZ         0.00000   0.09986   0.00000   0.00000  -0.12447
   6        3S          0.00000   0.00000   0.00000   0.00000   0.00000
   7        3PX         0.31402   0.00000  -0.51084   0.00000   0.00000
   8        3PY         0.00000   0.00000   0.00000  -0.51084   0.00000
   9        3PZ         0.00000   0.31402   0.00000   0.00000  -0.51084
  10        4S          0.00000   0.00000   0.00000   0.00000   0.00000
  11        4PX         6.32617   0.00000   5.34472   0.00000   0.00000
  12        4PY         0.00000   0.00000   0.00000   5.34472   0.00000
  13        4PZ         0.00000   6.32617   0.00000   0.00000   5.34472
  14        5S          0.00000   0.00000   0.00000   0.00000   0.00000
  15        5PX         0.76273   0.00000  -0.31812   0.00000   0.00000
  16        5PY         0.00000   0.00000   0.00000  -0.31812   0.00000
  17        5PZ         0.00000   0.76273   0.00000   0.00000  -0.31812
  18        6D 0        0.00000   0.00000   0.00000   0.00000   0.00000
  19        6D+1        0.00000   0.00000   0.00000   0.01954   0.00000
  20        6D-1       -0.02645   0.00000   0.01954   0.00000   0.00000
  21        6D+2        0.00000   0.00000   0.00000   0.00000   0.00000
  22        6D-2        0.00000  -0.02645   0.00000   0.00000   0.01954
  23        7D 0        0.00000   0.00000   0.00000   0.00000   0.00000
  24        7D+1        0.00000   0.00000   0.00000   0.51813   0.00000
  25        7D-1       -0.50031   0.00000   0.51813   0.00000   0.00000
  26        7D+2        0.00000   0.00000   0.00000   0.00000   0.00000
  27        7D-2        0.00000  -0.50031   0.00000   0.00000   0.51813
  28 2   H  1S         -0.04397  -0.04397   0.01872   0.01872   0.01872
  29        2S         -1.02674  -1.02674  -1.10012  -1.10012  -1.10012
  30        3S         -2.96904  -2.96904   0.35725   0.35725   0.35725
  31        4S         -0.10921  -0.10921   0.32693   0.32693   0.32693
  32        5PX         0.00111   0.00518  -0.01005  -0.00438  -0.00438
  33        5PY         0.00518   0.00518  -0.00438  -0.01005  -0.00438
  34        5PZ         0.00518   0.00111  -0.00438  -0.00438  -0.01005
  35        6PX         0.00452  -0.03850   0.08390   0.05214   0.05214
  36        6PY        -0.03850  -0.03850   0.05214   0.08390   0.05214
  37        6PZ        -0.03850   0.00452   0.05214   0.05214   0.08390
  38        7PX        -0.29466   1.16074  -1.69580  -0.06787  -0.06787
  39        7PY         1.16074   1.16074  -0.06787  -1.69580  -0.06787
  40        7PZ         1.16074  -0.29466  -0.06787  -0.06787  -1.69580
  41 3   H  1S          0.04397  -0.04397  -0.01872  -0.01872   0.01872
  42        2S          1.02674  -1.02674   1.10012   1.10012  -1.10012
  43        3S          2.96904  -2.96904  -0.35725  -0.35725   0.35725
  44        4S          0.10921  -0.10921  -0.32693  -0.32693   0.32693
  45        5PX         0.00111  -0.00518  -0.01005  -0.00438   0.00438
  46        5PY         0.00518  -0.00518  -0.00438  -0.01005   0.00438
  47        5PZ        -0.00518   0.00111   0.00438   0.00438  -0.01005
  48        6PX         0.00452   0.03850   0.08390   0.05214  -0.05214
  49        6PY        -0.03850   0.03850   0.05214   0.08390  -0.05214
  50        6PZ         0.03850   0.00452  -0.05214  -0.05214   0.08390
  51        7PX        -0.29466  -1.16074  -1.69580  -0.06787   0.06787
  52        7PY         1.16074  -1.16074  -0.06787  -1.69580   0.06787
  53        7PZ        -1.16074  -0.29466   0.06787   0.06787  -1.69580
  54 4   H  1S          0.04397   0.04397  -0.01872   0.01872  -0.01872
  55        2S          1.02674   1.02674   1.10012  -1.10012   1.10012
  56        3S          2.96904   2.96904  -0.35725   0.35725  -0.35725
  57        4S          0.10921   0.10921  -0.32693   0.32693  -0.32693
  58        5PX         0.00111   0.00518  -0.01005   0.00438  -0.00438
  59        5PY        -0.00518  -0.00518   0.00438  -0.01005   0.00438
  60        5PZ         0.00518   0.00111  -0.00438   0.00438  -0.01005
  61        6PX         0.00452  -0.03850   0.08390  -0.05214   0.05214
  62        6PY         0.03850   0.03850  -0.05214   0.08390  -0.05214
  63        6PZ        -0.03850   0.00452   0.05214  -0.05214   0.08390
  64        7PX        -0.29466   1.16074  -1.69580   0.06787  -0.06787
  65        7PY        -1.16074  -1.16074   0.06787  -1.69580   0.06787
  66        7PZ         1.16074  -0.29466  -0.06787   0.06787  -1.69580
  67 5   H  1S         -0.04397   0.04397   0.01872  -0.01872  -0.01872
  68        2S         -1.02674   1.02674  -1.10012   1.10012   1.10012
  69        3S         -2.96904   2.96904   0.35725  -0.35725  -0.35725
  70        4S         -0.10921   0.10921   0.32693  -0.32693  -0.32693
  71        5PX         0.00111  -0.00518  -0.01005   0.00438   0.00438
  72        5PY        -0.00518   0.00518   0.00438  -0.01005  -0.00438
  73        5PZ        -0.00518   0.00111   0.00438  -0.00438  -0.01005
  74        6PX         0.00452   0.03850   0.08390  -0.05214  -0.05214
  75        6PY         0.03850  -0.03850  -0.05214   0.08390   0.05214
  76        6PZ         0.03850   0.00452  -0.05214   0.05214   0.08390
  77        7PX        -0.29466  -1.16074  -1.69580   0.06787   0.06787
  78        7PY        -1.16074   1.16074   0.06787  -1.69580  -0.06787
  79        7PZ        -1.16074  -0.29466   0.06787  -0.06787  -1.69580
                          36        37        38        39        40
                        (A1)--V   (E)--V    (E)--V    (A1)--V   (T2)--V
     Eigenvalues --     0.83169   0.95559   0.95559   1.04847   1.26964
   1 1   C  1S          0.12264  -0.00000   0.00000  -0.01610   0.00000
   2        2S          0.23578  -0.00000   0.00000  -0.02220   0.00000
   3        2PX         0.00000   0.00000   0.00000   0.00000   0.00000
   4        2PY         0.00000   0.00000   0.00000   0.00000   0.00000
   5        2PZ         0.00000   0.00000   0.00000   0.00000   0.20099
   6        3S         -2.08830  -0.00000  -0.00000  -0.71010   0.00000
   7        3PX         0.00000   0.00000   0.00000   0.00000   0.00000
   8        3PY         0.00000   0.00000   0.00000   0.00000   0.00000
   9        3PZ         0.00000   0.00000   0.00000   0.00000   1.30851
  10        4S          7.26540   0.00000  -0.00000  31.51676   0.00000
  11        4PX         0.00000   0.00000   0.00000   0.00000   0.00000
  12        4PY         0.00000   0.00000   0.00000   0.00000   0.00000
  13        4PZ         0.00000   0.00000   0.00000   0.00000   7.39787
  14        5S          4.05079   0.00000  -0.00000  13.46840   0.00000
  15        5PX         0.00000   0.00000   0.00000   0.00000   0.00000
  16        5PY         0.00000   0.00000   0.00000   0.00000   0.00000
  17        5PZ         0.00000   0.00000   0.00000   0.00000  -0.86812
  18        6D 0       -0.00000   0.01267  -0.00579   0.00000   0.00000
  19        6D+1        0.00000   0.00000   0.00000   0.00000   0.00000
  20        6D-1        0.00000   0.00000   0.00000   0.00000   0.00000
  21        6D+2       -0.00000   0.00579   0.01267  -0.00000   0.00000
  22        6D-2        0.00000   0.00000   0.00000   0.00000   0.00337
  23        7D 0        0.00000   1.39478  -0.63745  -0.00000   0.00000
  24        7D+1        0.00000   0.00000   0.00000   0.00000   0.00000
  25        7D-1        0.00000   0.00000   0.00000   0.00000   0.00000
  26        7D+2       -0.00000   0.63745   1.39478   0.00000   0.00000
  27        7D-2        0.00000   0.00000   0.00000   0.00000   2.67340
  28 2   H  1S          0.07024  -0.00000  -0.00000  -0.08650  -0.05052
  29        2S         -0.31445  -0.00000   0.00000  -2.80196  -3.11743
  30        3S         -2.29973  -0.00000   0.00000  -8.01550  -3.72644
  31        4S         -0.31206  -0.00000   0.00000  -1.46282   1.32033
  32        5PX        -0.00759  -0.00026   0.00276  -0.00107  -0.00620
  33        5PY        -0.00759  -0.00226  -0.00161  -0.00107  -0.00620
  34        5PZ        -0.00759   0.00252  -0.00115  -0.00107  -0.01098
  35        6PX         0.09809  -0.00299   0.03139   0.02256   0.08123
  36        6PY         0.09809  -0.02569  -0.01828   0.02256   0.08123
  37        6PZ         0.09809   0.02868  -0.01311   0.02256   0.11559
  38        7PX         0.02478   0.04602  -0.48344   1.68804   1.13609
  39        7PY         0.02478   0.39566   0.28158   1.68804   1.13609
  40        7PZ         0.02478  -0.44168   0.20186   1.68804   0.82251
  41 3   H  1S          0.07024  -0.00000  -0.00000  -0.08650  -0.05052
  42        2S         -0.31445  -0.00000   0.00000  -2.80196  -3.11743
  43        3S         -2.29973  -0.00000   0.00000  -8.01550  -3.72644
  44        4S         -0.31206  -0.00000   0.00000  -1.46282   1.32033
  45        5PX         0.00759   0.00026  -0.00276   0.00107   0.00620
  46        5PY         0.00759   0.00226   0.00161   0.00107   0.00620
  47        5PZ        -0.00759   0.00252  -0.00115  -0.00107  -0.01098
  48        6PX        -0.09809   0.00299  -0.03139  -0.02256  -0.08123
  49        6PY        -0.09809   0.02569   0.01828  -0.02256  -0.08123
  50        6PZ         0.09809   0.02868  -0.01311   0.02256   0.11559
  51        7PX        -0.02478  -0.04602   0.48344  -1.68804  -1.13609
  52        7PY        -0.02478  -0.39566  -0.28158  -1.68804  -1.13609
  53        7PZ         0.02478  -0.44168   0.20186   1.68804   0.82251
  54 4   H  1S          0.07024  -0.00000  -0.00000  -0.08650   0.05052
  55        2S         -0.31445  -0.00000   0.00000  -2.80196   3.11743
  56        3S         -2.29973  -0.00000   0.00000  -8.01550   3.72644
  57        4S         -0.31206  -0.00000   0.00000  -1.46282  -1.32033
  58        5PX         0.00759   0.00026  -0.00276   0.00107  -0.00620
  59        5PY        -0.00759  -0.00226  -0.00161  -0.00107   0.00620
  60        5PZ         0.00759  -0.00252   0.00115   0.00107  -0.01098
  61        6PX        -0.09809   0.00299  -0.03139  -0.02256   0.08123
  62        6PY         0.09809  -0.02569  -0.01828   0.02256  -0.08123
  63        6PZ        -0.09809  -0.02868   0.01311  -0.02256   0.11559
  64        7PX        -0.02478  -0.04602   0.48344  -1.68804   1.13609
  65        7PY         0.02478   0.39566   0.28158   1.68804  -1.13609
  66        7PZ        -0.02478   0.44168  -0.20186  -1.68804   0.82251
  67 5   H  1S          0.07024  -0.00000  -0.00000  -0.08650   0.05052
  68        2S         -0.31445  -0.00000   0.00000  -2.80196   3.11743
  69        3S         -2.29973  -0.00000   0.00000  -8.01550   3.72644
  70        4S         -0.31206  -0.00000   0.00000  -1.46282  -1.32033
  71        5PX        -0.00759  -0.00026   0.00276  -0.00107   0.00620
  72        5PY         0.00759   0.00226   0.00161   0.00107  -0.00620
  73        5PZ         0.00759  -0.00252   0.00115   0.00107  -0.01098
  74        6PX         0.09809  -0.00299   0.03139   0.02256  -0.08123
  75        6PY        -0.09809   0.02569   0.01828  -0.02256   0.08123
  76        6PZ        -0.09809  -0.02868   0.01311  -0.02256   0.11559
  77        7PX         0.02478   0.04602  -0.48344   1.68804  -1.13609
  78        7PY        -0.02478  -0.39566  -0.28158  -1.68804   1.13609
  79        7PZ        -0.02478   0.44168  -0.20186  -1.68804   0.82251
                          41        42        43        44        45
                        (T2)--V   (T2)--V   (T1)--V   (T1)--V   (T1)--V
     Eigenvalues --     1.26964   1.26964   1.78981   1.78981   1.78981
   1 1   C  1S          0.00000   0.00000   0.00000   0.00000   0.00000
   2        2S          0.00000   0.00000   0.00000   0.00000   0.00000
   3        2PX         0.00000   0.20099   0.00000   0.00000   0.00000
   4        2PY         0.20099   0.00000   0.00000   0.00000   0.00000
   5        2PZ         0.00000   0.00000   0.00000   0.00000   0.00000
   6        3S          0.00000   0.00000   0.00000   0.00000   0.00000
   7        3PX         0.00000   1.30851   0.00000   0.00000   0.00000
   8        3PY         1.30851   0.00000   0.00000   0.00000   0.00000
   9        3PZ         0.00000   0.00000  -0.00000   0.00000   0.00000
  10        4S          0.00000   0.00000   0.00000   0.00000   0.00000
  11        4PX         0.00000   7.39787   0.00000   0.00000  -0.00000
  12        4PY         7.39787   0.00000   0.00000   0.00000   0.00000
  13        4PZ         0.00000   0.00000   0.00000   0.00000   0.00000
  14        5S          0.00000   0.00000   0.00000   0.00000   0.00000
  15        5PX         0.00000  -0.86812   0.00000   0.00000   0.00000
  16        5PY        -0.86812   0.00000   0.00000  -0.00000   0.00000
  17        5PZ         0.00000   0.00000  -0.00000   0.00000   0.00000
  18        6D 0        0.00000   0.00000   0.00000   0.00000   0.00000
  19        6D+1        0.00337   0.00000   0.00000  -0.00000   0.00000
  20        6D-1        0.00000   0.00337   0.00000   0.00000   0.00000
  21        6D+2        0.00000   0.00000   0.00000   0.00000   0.00000
  22        6D-2        0.00000   0.00000  -0.00000   0.00000   0.00000
  23        7D 0        0.00000   0.00000   0.00000   0.00000   0.00000
  24        7D+1        2.67340   0.00000   0.00000   0.00000   0.00000
  25        7D-1        0.00000   2.67340   0.00000   0.00000   0.00000
  26        7D+2        0.00000   0.00000   0.00000   0.00000   0.00000
  27        7D-2        0.00000   0.00000   0.00000   0.00000   0.00000
  28 2   H  1S         -0.05052  -0.05052  -0.00000  -0.00000  -0.00000
  29        2S         -3.11743  -3.11743  -0.00000  -0.00000   0.00000
  30        3S         -3.72644  -3.72644  -0.00000  -0.00000  -0.00000
  31        4S          1.32033   1.32033   0.00000   0.00000  -0.00000
  32        5PX        -0.00620  -0.01098  -0.02493  -0.02493  -0.00000
  33        5PY        -0.01098  -0.00620   0.02493  -0.00000  -0.02493
  34        5PZ        -0.00620  -0.00620   0.00000   0.02493   0.02493
  35        6PX         0.08123   0.11559   0.46282   0.46282   0.00000
  36        6PY         0.11559   0.08123  -0.46282  -0.00000   0.46282
  37        6PZ         0.08123   0.08123  -0.00000  -0.46282  -0.46282
  38        7PX         1.13609   0.82251  -0.42458  -0.42458   0.00000
  39        7PY         0.82251   1.13609   0.42458   0.00000  -0.42458
  40        7PZ         1.13609   1.13609   0.00000   0.42458   0.42458
  41 3   H  1S          0.05052   0.05052  -0.00000   0.00000   0.00000
  42        2S          3.11743   3.11743  -0.00000   0.00000  -0.00000
  43        3S          3.72644   3.72644  -0.00000   0.00000   0.00000
  44        4S         -1.32033  -1.32033   0.00000  -0.00000   0.00000
  45        5PX        -0.00620  -0.01098   0.02493  -0.02493  -0.00000
  46        5PY        -0.01098  -0.00620  -0.02493  -0.00000  -0.02493
  47        5PZ         0.00620   0.00620   0.00000  -0.02493  -0.02493
  48        6PX         0.08123   0.11559  -0.46282   0.46282   0.00000
  49        6PY         0.11559   0.08123   0.46282  -0.00000   0.46282
  50        6PZ        -0.08123  -0.08123  -0.00000   0.46282   0.46282
  51        7PX         1.13609   0.82251   0.42458  -0.42458   0.00000
  52        7PY         0.82251   1.13609  -0.42458   0.00000  -0.42458
  53        7PZ        -1.13609  -1.13609   0.00000  -0.42458  -0.42458
  54 4   H  1S         -0.05052   0.05052   0.00000  -0.00000   0.00000
  55        2S         -3.11743   3.11743   0.00000  -0.00000  -0.00000
  56        3S         -3.72644   3.72644   0.00000  -0.00000   0.00000
  57        4S          1.32033  -1.32033  -0.00000   0.00000   0.00000
  58        5PX         0.00620  -0.01098  -0.02493   0.02493  -0.00000
  59        5PY        -0.01098   0.00620  -0.02493  -0.00000   0.02493
  60        5PZ         0.00620  -0.00620   0.00000  -0.02493   0.02493
  61        6PX        -0.08123   0.11559   0.46282  -0.46282   0.00000
  62        6PY         0.11559  -0.08123   0.46282  -0.00000  -0.46282
  63        6PZ        -0.08123   0.08123  -0.00000   0.46282  -0.46282
  64        7PX        -1.13609   0.82251  -0.42458   0.42458   0.00000
  65        7PY         0.82251  -1.13609  -0.42458   0.00000   0.42458
  66        7PZ        -1.13609   1.13609   0.00000  -0.42458   0.42458
  67 5   H  1S          0.05052  -0.05052   0.00000   0.00000  -0.00000
  68        2S          3.11743  -3.11743   0.00000   0.00000   0.00000
  69        3S          3.72644  -3.72644   0.00000   0.00000  -0.00000
  70        4S         -1.32033   1.32033  -0.00000  -0.00000  -0.00000
  71        5PX         0.00620  -0.01098   0.02493   0.02493  -0.00000
  72        5PY        -0.01098   0.00620   0.02493  -0.00000   0.02493
  73        5PZ        -0.00620   0.00620   0.00000   0.02493  -0.02493
  74        6PX        -0.08123   0.11559  -0.46282  -0.46282   0.00000
  75        6PY         0.11559  -0.08123  -0.46282  -0.00000  -0.46282
  76        6PZ         0.08123  -0.08123  -0.00000  -0.46282   0.46282
  77        7PX        -1.13609   0.82251   0.42458   0.42458   0.00000
  78        7PY         0.82251  -1.13609   0.42458   0.00000   0.42458
  79        7PZ         1.13609  -1.13609   0.00000   0.42458  -0.42458
                          46        47        48        49        50
                        (T2)--V   (T2)--V   (T2)--V   (E)--V    (E)--V
     Eigenvalues --     1.91498   1.91498   1.91498   2.32104   2.32104
   1 1   C  1S          0.00000   0.00000   0.00000   0.00000   0.00000
   2        2S          0.00000   0.00000   0.00000   0.00000   0.00000
   3        2PX         0.00000   0.00000  -0.11081   0.00000   0.00000
   4        2PY        -0.11081   0.00000   0.00000   0.00000   0.00000
   5        2PZ         0.00000  -0.11081   0.00000   0.00000   0.00000
   6        3S          0.00000   0.00000   0.00000  -0.00000  -0.00000
   7        3PX         0.00000   0.00000   0.52665   0.00000   0.00000
   8        3PY         0.52665   0.00000   0.00000   0.00000   0.00000
   9        3PZ         0.00000   0.52665   0.00000   0.00000   0.00000
  10        4S          0.00000   0.00000   0.00000  -0.00000  -0.00000
  11        4PX         0.00000   0.00000   1.80945   0.00000   0.00000
  12        4PY         1.80945   0.00000   0.00000   0.00000   0.00000
  13        4PZ         0.00000   1.80945   0.00000   0.00000   0.00000
  14        5S          0.00000   0.00000   0.00000  -0.00000  -0.00000
  15        5PX         0.00000   0.00000   0.63620   0.00000   0.00000
  16        5PY         0.63620   0.00000   0.00000   0.00000   0.00000
  17        5PZ         0.00000   0.63620   0.00000   0.00000   0.00000
  18        6D 0        0.00000   0.00000   0.00000  -0.08950   0.02608
  19        6D+1       -0.12616   0.00000   0.00000   0.00000   0.00000
  20        6D-1        0.00000   0.00000  -0.12616   0.00000   0.00000
  21        6D+2        0.00000   0.00000   0.00000  -0.02608  -0.08950
  22        6D-2        0.00000  -0.12616   0.00000   0.00000   0.00000
  23        7D 0        0.00000   0.00000   0.00000   1.61776  -0.47141
  24        7D+1        1.24562   0.00000   0.00000   0.00000   0.00000
  25        7D-1        0.00000   0.00000   1.24562   0.00000   0.00000
  26        7D+2        0.00000   0.00000   0.00000   0.47141   1.61776
  27        7D-2        0.00000   1.24562   0.00000   0.00000   0.00000
  28 2   H  1S         -0.19047  -0.19047  -0.19047   0.00000   0.00000
  29        2S         -0.71191  -0.71191  -0.71191  -0.00000  -0.00000
  30        3S         -0.66311  -0.66311  -0.66311   0.00000   0.00000
  31        4S         -0.30113  -0.30113  -0.30113   0.00000   0.00000
  32        5PX         0.01050   0.01050  -0.03378  -0.00926   0.03783
  33        5PY        -0.03378   0.01050   0.01050  -0.02813  -0.02693
  34        5PZ         0.01050  -0.03378   0.01050   0.03739  -0.01090
  35        6PX        -0.08313  -0.08313   0.70923   0.17302  -0.70685
  36        6PY         0.70923  -0.08313  -0.08313   0.52564   0.50326
  37        6PZ        -0.08313   0.70923  -0.08313  -0.69866   0.20359
  38        7PX         0.20877   0.20877  -0.36040   0.01593  -0.06507
  39        7PY        -0.36040   0.20877   0.20877   0.04839   0.04633
  40        7PZ         0.20877  -0.36040   0.20877  -0.06432   0.01874
  41 3   H  1S          0.19047  -0.19047   0.19047   0.00000   0.00000
  42        2S          0.71191  -0.71191   0.71191  -0.00000  -0.00000
  43        3S          0.66311  -0.66311   0.66311   0.00000   0.00000
  44        4S          0.30113  -0.30113   0.30113   0.00000   0.00000
  45        5PX         0.01050  -0.01050  -0.03378   0.00926  -0.03783
  46        5PY        -0.03378  -0.01050   0.01050   0.02813   0.02693
  47        5PZ        -0.01050  -0.03378  -0.01050   0.03739  -0.01090
  48        6PX        -0.08313   0.08313   0.70923  -0.17302   0.70685
  49        6PY         0.70923   0.08313  -0.08313  -0.52564  -0.50326
  50        6PZ         0.08313   0.70923   0.08313  -0.69866   0.20359
  51        7PX         0.20877  -0.20877  -0.36040  -0.01593   0.06507
  52        7PY        -0.36040  -0.20877   0.20877  -0.04839  -0.04633
  53        7PZ        -0.20877  -0.36040  -0.20877  -0.06432   0.01874
  54 4   H  1S         -0.19047   0.19047   0.19047   0.00000   0.00000
  55        2S         -0.71191   0.71191   0.71191  -0.00000  -0.00000
  56        3S         -0.66311   0.66311   0.66311   0.00000   0.00000
  57        4S         -0.30113   0.30113   0.30113   0.00000   0.00000
  58        5PX        -0.01050   0.01050  -0.03378   0.00926  -0.03783
[...]
      X   X                                                                                                                          
      X   X                                                                                                                          
      X   X                                                                                                                          
      X   X                                                                                                                          
      X   X                                                                                                                          
      X   X                                                                                                                          
      X   X                                                                                                                          
      X   X                                                                                                                          
      X   X                                                                                                                          
      X   X                                                                                                                          
          X                                                                                                                          
          X                                                                                                                          
          X                                                                                                                          
          X                                                                                                                          
          X                                                                                                                          
          X                                                                                                                          
 
 ***** Axes restored to original set *****
 -------------------------------------------------------------------
 Center     Atomic                   Forces (Hartrees/Bohr)
 Number     Number              X              Y              Z
 -------------------------------------------------------------------
      1        6           0.000000000   -0.000000000    0.000000000
      2        1          -0.000000017    0.000000049   -0.000000000
      3        1          -0.000000017   -0.000000025   -0.000000043
      4        1          -0.000000017   -0.000000025    0.000000043
      5        1           0.000000052   -0.000000000   -0.000000000
 -------------------------------------------------------------------
 Cartesian Forces:  Max     0.000000052 RMS     0.000000027
 Force constants in Cartesian coordinates: 
                1             2             3             4             5 
      1  0.541291D+00
      2  0.000000D+00  0.541291D+00
      3  0.000000D+00  0.000000D+00  0.541291D+00
      4 -0.753008D-01  0.848784D-01  0.000000D+00  0.778231D-01
      5  0.848784D-01 -0.285375D+00  0.000000D+00 -0.935073D-01  0.309254D+00
      6  0.000000D+00  0.000000D+00 -0.452929D-01  0.000000D+00  0.000000D+00
      7 -0.753040D-01 -0.424409D-01 -0.735104D-01  0.322693D-02  0.450549D-02
      8 -0.424409D-01 -0.105312D+00 -0.103957D+00 -0.114479D-01 -0.129562D-01
      9 -0.735104D-01 -0.103957D+00 -0.225353D+00  0.140661D-02  0.848354D-03
     10 -0.753040D-01 -0.424409D-01  0.735104D-01  0.322692D-02  0.450549D-02
     11 -0.424409D-01 -0.105312D+00  0.103957D+00 -0.114479D-01 -0.129562D-01
     12  0.735104D-01  0.103957D+00 -0.225353D+00 -0.140662D-02 -0.848354D-03
     13 -0.315383D+00  0.331987D-05  0.000000D+00 -0.897612D-02 -0.382052D-03
     14  0.332036D-05 -0.452929D-01  0.000000D+00  0.315247D-01  0.203361D-02
     15  0.000000D+00  0.000000D+00 -0.452929D-01  0.000000D+00  0.000000D+00
                6             7             8             9            10 
      6  0.447645D-01
      7  0.106170D-01  0.778265D-01
      8 -0.252035D-01  0.467555D-01  0.110885D+00
      9  0.110506D-02  0.809836D-01  0.114525D+00  0.243130D+00
     10 -0.106170D-01  0.322718D-02  0.694206D-02 -0.921084D-02  0.778265D-01
     11  0.252035D-01  0.694206D-02  0.813557D-02 -0.130258D-01  0.467555D-01
     12  0.110506D-02  0.921084D-02  0.130258D-01 -0.199870D-01 -0.809836D-01
     13  0.000000D+00 -0.897669D-02  0.191195D-03  0.331004D-03 -0.897669D-02
     14  0.000000D+00 -0.157622D-01 -0.752604D-03  0.160895D-02 -0.157622D-01
     15 -0.168172D-02 -0.273010D-01  0.160929D-02  0.110506D-02  0.273010D-01
               11            12            13            14            15 
     11  0.110885D+00
     12 -0.114525D+00  0.243130D+00
     13  0.191195D-03 -0.331004D-03  0.342312D+00
     14 -0.752604D-03 -0.160895D-02 -0.365704D-05  0.447645D-01
     15 -0.160929D-02  0.110506D-02  0.000000D+00  0.000000D+00  0.447645D-01
 FormGI is forming the generalized inverse of G from B-inverse, IUseBI=4.
 Force constants in internal coordinates: 
                1             2             3             4             5 
      1  0.342312D+00
      2  0.263184D-02  0.342312D+00
      3  0.263184D-02  0.263184D-02  0.342312D+00
      4  0.263184D-02  0.263184D-02  0.263184D-02  0.342312D+00
      5  0.194771D-02  0.194771D-02 -0.122298D-02 -0.267243D-02  0.194103D-01
      6  0.305252D-02 -0.787748D-03  0.339716D-02 -0.566194D-02 -0.861500D-02
      7  0.596522D-02 -0.478754D-02 -0.529957D-02  0.412189D-02 -0.128648D-01
      8 -0.787748D-03  0.305252D-02  0.339716D-02 -0.566194D-02 -0.861500D-02
      9 -0.478754D-02  0.596522D-02 -0.529957D-02  0.412189D-02 -0.128648D-01
     10 -0.539016D-02 -0.539016D-02  0.502780D-02  0.575253D-02  0.235493D-01
     11 -0.377233D-02 -0.377233D-02 -0.266282D-02  0.102075D-01 -0.132215D-01
     12  0.310662D-02  0.310662D-02 -0.798846D-02  0.177521D-02  0.801657D-02
     13 -0.409071D-02  0.719733D-02 -0.399423D-02  0.887607D-03  0.400828D-02
     14 -0.719733D-02  0.409071D-02  0.399423D-02 -0.887607D-03 -0.400828D-02
                6             7             8             9            10 
      6  0.365922D-01
      7 -0.222386D-01  0.714879D-01
      8 -0.204144D-02  0.244235D-01  0.365922D-01
      9  0.244235D-01 -0.346665D-01 -0.222386D-01  0.714879D-01
     10 -0.281207D-01 -0.261416D-01 -0.281207D-01 -0.261416D-01  0.849752D-01
     11 -0.106068D-01  0.144181D-01 -0.106068D-01  0.144181D-01  0.559878D-02
     12 -0.921319D-02  0.679236D-02 -0.921319D-02  0.679236D-02 -0.317491D-02
     13 -0.139775D-01 -0.532223D-03  0.476426D-02  0.732458D-02 -0.158745D-02
     14 -0.476426D-02 -0.732458D-02  0.139775D-01  0.532223D-03  0.158745D-02
               11            12            13            14 
     11  0.291835D-01
     12  0.146556D-02  0.181372D-01
     13  0.732779D-03  0.906858D-02  0.184168D-01
     14 -0.732779D-03 -0.906858D-02  0.934827D-02  0.184168D-01
 Leave Link  716 at Fri Sep  6 16:34:14 2024, MaxMem=   536870912 cpu:               0.1 elap:               0.0
 (Enter /Users/asuyarger/Applications/G16/g16/l103.exe)

 GradGradGradGradGradGradGradGradGradGradGradGradGradGradGradGradGradGrad
 Berny optimization.
 Red2BG is reusing G-inverse.
 Internal  Forces:  Max     0.000000052 RMS     0.000000028
 Search for a local minimum.
 Step number   1 out of a maximum of    2
 All quantities printed in internal units (Hartrees-Bohrs-Radians)
 Second derivative matrix not updated -- analytic derivatives used.
 The second derivative matrix:
                          R1        R2        R3        R4        A1
           R1           0.34231
           R2           0.00263   0.34231
           R3           0.00263   0.00263   0.34231
           R4           0.00263   0.00263   0.00263   0.34231
           A1           0.00195   0.00195  -0.00122  -0.00267   0.01941
           A2           0.00305  -0.00079   0.00340  -0.00566  -0.00861
           A3           0.00597  -0.00479  -0.00530   0.00412  -0.01286
           A4          -0.00079   0.00305   0.00340  -0.00566  -0.00861
           A5          -0.00479   0.00597  -0.00530   0.00412  -0.01286
           A6          -0.00539  -0.00539   0.00503   0.00575   0.02355
           D1          -0.00377  -0.00377  -0.00266   0.01021  -0.01322
           D2           0.00311   0.00311  -0.00799   0.00178   0.00802
           D3          -0.00409   0.00720  -0.00399   0.00089   0.00401
           D4          -0.00720   0.00409   0.00399  -0.00089  -0.00401
                          A2        A3        A4        A5        A6
           A2           0.03659
           A3          -0.02224   0.07149
           A4          -0.00204   0.02442   0.03659
           A5           0.02442  -0.03467  -0.02224   0.07149
           A6          -0.02812  -0.02614  -0.02812  -0.02614   0.08498
           D1          -0.01061   0.01442  -0.01061   0.01442   0.00560
           D2          -0.00921   0.00679  -0.00921   0.00679  -0.00317
           D3          -0.01398  -0.00053   0.00476   0.00732  -0.00159
           D4          -0.00476  -0.00732   0.01398   0.00053   0.00159
                          D1        D2        D3        D4
           D1           0.02918
           D2           0.00147   0.01814
           D3           0.00073   0.00907   0.01842
           D4          -0.00073  -0.00907   0.00935   0.01842
 ITU=  0
     Eigenvalues ---    0.03717   0.04187   0.06360   0.12922   0.12974
     Eigenvalues ---    0.34061   0.34063   0.34091   0.35021
 Angle between quadratic step and forces=  90.00 degrees.
 Linear search not attempted -- first point.
 Iteration  1 RMS(Cart)=  0.00000008 RMS(Int)=  0.00000000
 ITry= 1 IFail=0 DXMaxC= 1.50D-07 DCOld= 1.00D+10 DXMaxT= 3.00D-01 DXLimC= 3.00D+00 Rises=F
 ClnCor:  largest displacement from symmetrization is 2.24D-14 for atom     3.
 Variable       Old X    -DE/DX   Delta X   Delta X   Delta X     New X
                                 (Linear)    (Quad)   (Total)
    R1        2.05636  -0.00000   0.00000  -0.00000  -0.00000   2.05636
    R2        2.05636  -0.00000   0.00000  -0.00000  -0.00000   2.05636
    R3        2.05636  -0.00000   0.00000  -0.00000  -0.00000   2.05636
    R4        2.05636  -0.00000   0.00000  -0.00000  -0.00000   2.05636
    A1        1.91063   0.00000   0.00000   0.00000   0.00000   1.91063
    A2        1.91063  -0.00000   0.00000  -0.00000   0.00000   1.91063
    A3        1.91063   0.00000   0.00000  -0.00000   0.00000   1.91063
    A4        1.91063   0.00000   0.00000   0.00000   0.00000   1.91063
    A5        1.91063  -0.00000   0.00000  -0.00000  -0.00000   1.91063
    A6        1.91063   0.00000   0.00000   0.00000   0.00000   1.91063
    D1       -2.09440  -0.00000   0.00000  -0.00000  -0.00000  -2.09440
    D2        2.09440  -0.00000   0.00000   0.00000   0.00000   2.09440
    D3       -2.09440   0.00000   0.00000   0.00000  -0.00000  -2.09440
    D4        2.09440   0.00000   0.00000   0.00000   0.00000   2.09440
         Item               Value     Threshold  Converged?
 Maximum Force            0.000000     0.000015     YES
 RMS     Force            0.000000     0.000010     YES
 Maximum Displacement     0.000000     0.000060     YES
 RMS     Displacement     0.000000     0.000040     YES
 Predicted change in Energy=-1.573064D-14
 Optimization completed.
    -- Stationary point found.
                           ----------------------------
                           !   Optimized Parameters   !
                           ! (Angstroms and Degrees)  !
 --------------------------                            --------------------------
 ! Name  Definition              Value          Derivative Info.                !
 --------------------------------------------------------------------------------
 ! R1    R(1,2)                  1.0882         -DE/DX =    0.0                 !
 ! R2    R(1,3)                  1.0882         -DE/DX =    0.0                 !
 ! R3    R(1,4)                  1.0882         -DE/DX =    0.0                 !
 ! R4    R(1,5)                  1.0882         -DE/DX =    0.0                 !
 ! A1    A(2,1,3)              109.4712         -DE/DX =    0.0                 !
 ! A2    A(2,1,4)              109.4712         -DE/DX =    0.0                 !
 ! A3    A(2,1,5)              109.4712         -DE/DX =    0.0                 !
 ! A4    A(3,1,4)              109.4712         -DE/DX =    0.0                 !
 ! A5    A(3,1,5)              109.4712         -DE/DX =    0.0                 !
 ! A6    A(4,1,5)              109.4712         -DE/DX =    0.0                 !
 ! D1    D(2,1,4,3)           -120.0            -DE/DX =    0.0                 !
 ! D2    D(2,1,5,3)            120.0            -DE/DX =    0.0                 !
 ! D3    D(2,1,5,4)           -120.0            -DE/DX =    0.0                 !
 ! D4    D(3,1,5,4)            120.0            -DE/DX =    0.0                 !
 --------------------------------------------------------------------------------
 GradGradGradGradGradGradGradGradGradGradGradGradGradGradGradGradGradGrad

 Leave Link  103 at Fri Sep  6 16:34:14 2024, MaxMem=   536870912 cpu:               0.0 elap:               0.0
 (Enter /Users/asuyarger/Applications/G16/g16/l9999.exe)
 Dipole is zero, so no output in dipole orientation.

 ----------------------------------------------------------------------

 Electric dipole moment (input orientation):
 (Debye = 10**-18 statcoulomb cm , SI units = C m)
                  (au)            (Debye)         (10**-30 SI)
   Tot        0.000000D+00      0.000000D+00      0.000000D+00
   x          0.000000D+00      0.000000D+00      0.000000D+00
   y          0.000000D+00      0.000000D+00      0.000000D+00
   z          0.000000D+00      0.000000D+00      0.000000D+00

 Dipole polarizability, Alpha (input orientation).
 (esu units = cm**3 , SI units = C**2 m**2 J**-1)
 Alpha(0;0):
               (au)            (10**-24 esu)      (10**-40 SI)
   iso        0.166471D+02      0.246685D+01      0.274474D+01
   aniso      0.000000D+00      0.000000D+00      0.000000D+00
   xx         0.166471D+02      0.246685D+01      0.274474D+01
   yx         0.000000D+00      0.000000D+00      0.000000D+00
   yy         0.166471D+02      0.246685D+01      0.274474D+01
   zx         0.000000D+00      0.000000D+00      0.000000D+00
   zy         0.000000D+00      0.000000D+00      0.000000D+00
   zz         0.166471D+02      0.246685D+01      0.274474D+01

 First dipole hyperpolarizability, Beta (input orientation).
 ||, _|_  parallel and perpendicular components, (z) with respect to z axis,
 vector components x,y,z.  Values do not include the 1/n! factor of 1/2.
 (esu units = statvolt**-1 cm**4 , SI units = C**3 m**3 J**-2)
 Beta(0;0,0):
               (au)            (10**-30 esu)      (10**-50 SI)
   || (z)     0.000000D+00      0.000000D+00      0.000000D+00
   _|_(z)     0.000000D+00      0.000000D+00      0.000000D+00
   x          0.000000D+00      0.000000D+00      0.000000D+00
   y          0.000000D+00      0.000000D+00      0.000000D+00
   z          0.000000D+00      0.000000D+00      0.000000D+00
   ||         0.000000D+00      0.000000D+00      0.000000D+00
   xxx       -0.165184D+02     -0.142706D+00     -0.529641D-01
   xxy        0.406050D-03      0.350796D-05      0.130194D-05
   yxy        0.825907D+01      0.713520D-01      0.264816D-01
   yyy       -0.116806D+02     -0.100911D+00     -0.374522D-01
   xxz        0.000000D+00      0.000000D+00      0.000000D+00
   yxz        0.000000D+00      0.000000D+00      0.000000D+00
   yyz        0.000000D+00      0.000000D+00      0.000000D+00
   zxz        0.825936D+01      0.713544D-01      0.264825D-01
   zyz        0.116802D+02      0.100908D+00      0.374509D-01
   zzz        0.000000D+00      0.000000D+00      0.000000D+00

 ----------------------------------------------------------------------
 1\1\GINC-JEFFSMACSTUDIO\Freq\RB3LYP\6-311++G(2d,3p)\C1H4\ROOT\06-Sep-2
 024\0\\#P Geom=AllCheck Guess=TCheck SCRF=Check GenChk RB3LYP/6-311++G
 (2d,3p) Freq\\CH4 DFT B3LPY 6-311++g(2d,3p) Opt Freq - Full - NBO\\0,1
 \C,-0.081374299,0.28028924,0.\H,0.2813401771,-0.7456623468,-0.00000001
 42\H,0.2813591044,0.7932583382,0.8884962757\H,0.2813590792,0.793258353
 9,-0.888496277\H,-1.1695555566,0.2803026147,0.0000000154\\Version=EM64
 M-G16RevA.03\State=1-A1\HF=-40.5363906\RMSD=1.800e-09\RMSF=2.710e-08\Z
 eroPoint=0.0445836\Thermal=0.0474521\Dipole=0.,0.,0.\DipoleDeriv=0.004
 3131,0.,0.,0.,0.0043131,0.,0.,0.,0.0043131,0.0433762,0.0628641,0.,0.06
 28641,-0.1122122,0.,0.,0.,0.0656012,0.0433739,-0.0314333,-0.0544445,-0
 .0314333,0.021149,-0.0769941,-0.0544445,-0.0769941,-0.0677577,0.043373
 9,-0.0314333,0.0544445,-0.0314333,0.021149,0.0769941,0.0544445,0.07699
 41,-0.0677577,-0.1344372,0.0000025,0.,0.0000025,0.0656012,0.,0.,0.,0.0
 656012\Polar=16.6471421,0.,16.6471421,0.,0.,16.6471421\PolarDeriv=6.77
 63582,-0.0001667,-3.3881203,-0.0000002,0.,-3.388238,-0.0001667,-3.3881
 201,4.7917338,0.,0.0000002,-4.7915671,-0.0000002,0.,0.0000002,-3.38823
 79,-4.7915672,0.,0.791477,-1.464034,2.2973503,0.,0.,0.8177123,-2.00962
 36,2.1044627,-7.9668234,0.,0.,-1.0733476,0.,0.,0.,0.6248248,-0.527758,
 0.,0.7915681,0.7320563,1.1876512,1.2679448,0.6407287,1.9275241,1.00484
 75,0.9947536,1.7941182,0.6407287,1.7209729,2.7258595,1.7404373,0.64072
 87,2.1934654,1.7346265,2.4530683,5.6354585,0.791568,0.7320563,1.187651
 2,-1.2679447,-0.6407287,1.9275239,1.0048475,0.9947536,1.7941183,-0.640
 7287,-1.720973,2.7258595,-1.7404372,-0.6407287,-2.1934655,1.7346264,2.
 4530683,-5.6354586,-9.150971,0.000088,-1.2845326,0.0000001,0.,-1.28452
 25,0.0000951,-0.7058499,-0.4131466,0.,0.,0.4131956,0.0000001,0.,0.,-0.
 7058398,0.4131885,0.\HyperPolar=-16.5184318,0.0004061,8.2590724,-11.68
 05997,0.0000005,0.0000002,-0.0000004,8.2593595,11.6801937,0.\Quadrupol
 e=0.,0.,0.,0.,0.,0.\PG=TD [O(C1),4C3(H1)]\NImag=0\\0.54129137,0.,0.541
 29137,0.,0.,0.54129137,-0.07530082,0.08487842,0.,0.07782309,0.08487842
 ,-0.28537477,0.,-0.09350735,0.30925360,0.,0.,-0.04529294,0.,0.,0.04476
 454,-0.07530395,-0.04244087,-0.07351039,0.00322693,0.00450549,0.010616
 98,0.07782654,-0.04244087,-0.10531183,-0.10395667,-0.01144788,-0.01295
 622,-0.02520350,0.04675550,0.11088508,-0.07351039,-0.10395667,-0.22535
 274,0.00140661,0.00084835,0.00110506,0.08098361,0.11452513,0.24312961,
 -0.07530395,-0.04244087,0.07351038,0.00322692,0.00450549,-0.01061698,0
 .00322718,0.00694206,-0.00921084,0.07782654,-0.04244087,-0.10531183,0.
 10395667,-0.01144788,-0.01295622,0.02520350,0.00694206,0.00813557,-0.0
 1302576,0.04675550,0.11088509,0.07351038,0.10395667,-0.22535275,-0.001
 40662,-0.00084835,0.00110506,0.00921084,0.01302576,-0.01998699,-0.0809
 8361,-0.11452513,0.24312961,-0.31538265,0.00000332,0.,-0.00897612,-0.0
 0038205,0.,-0.00897669,0.00019119,0.00033100,-0.00897669,0.00019119,-0
 .00033100,0.34231215,0.00000332,-0.04529294,0.,0.03152469,0.00203361,0
 .,-0.01576217,-0.00075260,0.00160895,-0.01576217,-0.00075260,-0.001608
 95,-0.00000366,0.04476454,0.,0.,-0.04529294,0.,0.,-0.00168172,-0.02730
 104,0.00160929,0.00110506,0.02730104,-0.00160929,0.00110506,0.,0.,0.04
 476454\\0.,0.,0.,0.00000002,-0.00000005,0.,0.00000002,0.00000002,0.000
 00004,0.00000002,0.00000002,-0.00000004,-0.00000005,0.,0.\\\@


 STEINBACH'S GUIDELINES FOR SYSTEMS PROGRAMMING:
 NEVER TEST FOR AN ERROR CONDITION YOU DON'T KNOW HOW
 TO HANDLE.
 Job cpu time:       0 days  0 hours  0 minutes  5.3 seconds.
 Elapsed time:       0 days  0 hours  0 minutes  5.1 seconds.
 File lengths (MBytes):  RWF=      7 Int=      0 D2E=      0 Chk=      2 Scr=      1
 Normal termination of Gaussian 16 at Fri Sep  6 16:34:14 2024.
