 Entering Gaussian System, Link 0=g16
 Input=/Users/asuyarger/Downloads/CH4_PM6_Opt_Freq_Full.gjf
 Output=/Users/asuyarger/Downloads/CH4_PM6_Opt_Freq_Full.log
 Initial command:
 /Users/asuyarger/Applications/G16/g16/l1.exe "/Users/asuyarger/Applications/G16/scratch/Gau-92843.inp" -scrdir="/Users/asuyarger/Applications/G16/scratch/"
 Entering Link 1 = /Users/asuyarger/Applications/G16/g16/l1.exe PID=     92844.
  
 Copyright (c) 1988,1990,1992,1993,1995,1998,2003,2009,2016,
            Gaussian, Inc.  All Rights Reserved.
  
 This is part of the Gaussian(R) 16 program.  It is based on
 the Gaussian(R) 09 system (copyright 2009, Gaussian, Inc.),
 the Gaussian(R) 03 system (copyright 2003, Gaussian, Inc.),
 the Gaussian(R) 98 system (copyright 1998, Gaussian, Inc.),
 the Gaussian(R) 94 system (copyright 1995, Gaussian, Inc.),
 the Gaussian 92(TM) system (copyright 1992, Gaussian, Inc.),
 the Gaussian 90(TM) system (copyright 1990, Gaussian, Inc.),
 the Gaussian 88(TM) system (copyright 1988, Gaussian, Inc.),
 the Gaussian 86(TM) system (copyright 1986, Carnegie Mellon
 University), and the Gaussian 82(TM) system (copyright 1983,
 Carnegie Mellon University). Gaussian is a federally registered
 trademark of Gaussian, Inc.
  
 This software contains proprietary and confidential information,
 including trade secrets, belonging to Gaussian, Inc.
  
 This software is provided under written license and may be
 used, copied, transmitted, or stored only in accord with that
 written license.
  
 The following legend is applicable only to US Government
 contracts under FAR:
  
                    RESTRICTED RIGHTS LEGEND
  
 Use, reproduction and disclosure by the US Government is
 subject to restrictions as set forth in subparagraphs (a)
 and (c) of the Commercial Computer Software - Restricted
 Rights clause in FAR 52.227-19.
  
 Gaussian, Inc.
 340 Quinnipiac St., Bldg. 40, Wallingford CT 06492
  
  
 ---------------------------------------------------------------
 Warning -- This program may not be used in any manner that
 competes with the business of Gaussian, Inc. or will provide
 assistance to any competitor of Gaussian, Inc.  The licensee
 of this program is prohibited from giving any competitor of
 Gaussian, Inc. access to this program.  By using this program,
 the user acknowledges that Gaussian, Inc. is engaged in the
 business of creating and licensing software in the field of
 computational chemistry and represents and warrants to the
 licensee that it is not a competitor of Gaussian, Inc. and that
 it will not use this program in any manner prohibited above.
 ---------------------------------------------------------------
  

 Cite this work as:
 Gaussian 16, Revision A.03,
 M. J. Frisch, G. W. Trucks, H. B. Schlegel, G. E. Scuseria, 
 M. A. Robb, J. R. Cheeseman, G. Scalmani, V. Barone, 
 G. A. Petersson, H. Nakatsuji, X. Li, M. Caricato, A. V. Marenich, 
 J. Bloino, B. G. Janesko, R. Gomperts, B. Mennucci, H. P. Hratchian, 
 J. V. Ortiz, A. F. Izmaylov, J. L. Sonnenberg, D. Williams-Young, 
 F. Ding, F. Lipparini, F. Egidi, J. Goings, B. Peng, A. Petrone, 
 T. Henderson, D. Ranasinghe, V. G. Zakrzewski, J. Gao, N. Rega, 
 G. Zheng, W. Liang, M. Hada, M. Ehara, K. Toyota, R. Fukuda, 
 J. Hasegawa, M. Ishida, T. Nakajima, Y. Honda, O. Kitao, H. Nakai, 
 T. Vreven, K. Throssell, J. A. Montgomery, Jr., J. E. Peralta, 
 F. Ogliaro, M. J. Bearpark, J. J. Heyd, E. N. Brothers, K. N. Kudin, 
 V. N. Staroverov, T. A. Keith, R. Kobayashi, J. Normand, 
 K. Raghavachari, A. P. Rendell, J. C. Burant, S. S. Iyengar, 
 J. Tomasi, M. Cossi, J. M. Millam, M. Klene, C. Adamo, R. Cammi, 
 J. W. Ochterski, R. L. Martin, K. Morokuma, O. Farkas, 
 J. B. Foresman, and D. J. Fox, Gaussian, Inc., Wallingford CT, 2016.
 
 ******************************************
 Gaussian 16:  EM64M-G16RevA.03 25-Dec-2016
                 6-Sep-2024 
 ******************************************
 %chk=CH4_PM6_Opt_Freq_Full.chk
 ----------------------------------------------------------------------
 #p opt=tight freq pm6 guess=save pop=(hirshfeld,full) geom=connectivit
 y polar
 ----------------------------------------------------------------------
 1/7=10,18=20,19=15,26=1,38=1,57=2/1,3;
 2/9=110,12=2,17=6,18=5,40=1/2;
 3/5=2,25=1,41=3900000,71=1/1,2,3;
 4/35=1/1;
 5/5=2,35=1,38=5,98=1/2;
 6/7=3,28=1,79=1/1;
 7//1,2,3,16;
 1/7=10,18=20,19=15,26=1/3(2);
 2/9=110/2;
 99//99;
 2/9=110/2;
 3/5=2,25=1,41=3900000,71=1,135=20/1,2,3;
 4/5=5,16=3,35=1/1;
 5/5=2,35=1,38=5,98=1/2;
 7//1,2,3,16;
 1/7=10,18=20,19=15,26=1/3(-5);
 2/9=110/2;
 6/7=3,19=2,28=1,79=1/1;
 99/9=1/99;
 Leave Link    1 at Fri Sep  6 16:31:01 2024, MaxMem=           0 cpu:               0.0 elap:               0.0
 (Enter /Users/asuyarger/Applications/G16/g16/l101.exe)
 -----------------------------
 CH4 PM6 Opt Freq - Full - NBO
 -----------------------------
 Symbolic Z-matrix:
 Charge =  0 Multiplicity = 1
 C                    -0.08137   0.28029   0. 
 H                     0.27528  -0.72852   0. 
 H                     0.2753    0.78469   0.87365 
 H                     0.2753    0.78469  -0.87365 
 H                    -1.15137   0.2803    0. 
 
 ITRead=  0  0  0  0  0
 MicOpt= -1 -1 -1 -1 -1
 NAtoms=      5 NQM=        5 NQMF=       0 NMMI=      0 NMMIF=      0
                NMic=       0 NMicF=      0.
                    Isotopes and Nuclear Properties:
 (Nuclear quadrupole moments (NQMom) in fm**2, nuclear magnetic moments (NMagM)
  in nuclear magnetons)

  Atom         1           2           3           4           5
 IAtWgt=          12           1           1           1           1
 AtmWgt=  12.0000000   1.0078250   1.0078250   1.0078250   1.0078250
 NucSpn=           0           1           1           1           1
 AtZEff=  -0.0000000  -0.0000000  -0.0000000  -0.0000000  -0.0000000
 NQMom=    0.0000000   0.0000000   0.0000000   0.0000000   0.0000000
 NMagM=    0.0000000   2.7928460   2.7928460   2.7928460   2.7928460
 AtZNuc=   6.0000000   1.0000000   1.0000000   1.0000000   1.0000000
 Leave Link  101 at Fri Sep  6 16:31:01 2024, MaxMem=   104857600 cpu:               0.1 elap:               0.1
 (Enter /Users/asuyarger/Applications/G16/g16/l103.exe)

 GradGradGradGradGradGradGradGradGradGradGradGradGradGradGradGradGradGrad
 Berny optimization.
 Initialization pass.
                           ----------------------------
                           !    Initial Parameters    !
                           ! (Angstroms and Degrees)  !
 --------------------------                            --------------------------
 ! Name  Definition              Value          Derivative Info.                !
 --------------------------------------------------------------------------------
 ! R1    R(1,2)                  1.07           estimate D2E/DX2                !
 ! R2    R(1,3)                  1.07           estimate D2E/DX2                !
 ! R3    R(1,4)                  1.07           estimate D2E/DX2                !
 ! R4    R(1,5)                  1.07           estimate D2E/DX2                !
 ! A1    A(2,1,3)              109.4712         estimate D2E/DX2                !
 ! A2    A(2,1,4)              109.4712         estimate D2E/DX2                !
 ! A3    A(2,1,5)              109.4712         estimate D2E/DX2                !
 ! A4    A(3,1,4)              109.4712         estimate D2E/DX2                !
 ! A5    A(3,1,5)              109.4712         estimate D2E/DX2                !
 ! A6    A(4,1,5)              109.4712         estimate D2E/DX2                !
 ! D1    D(2,1,4,3)           -120.0            estimate D2E/DX2                !
 ! D2    D(2,1,5,3)            120.0            estimate D2E/DX2                !
 ! D3    D(2,1,5,4)           -120.0            estimate D2E/DX2                !
 ! D4    D(3,1,5,4)            120.0            estimate D2E/DX2                !
 --------------------------------------------------------------------------------
 Trust Radius=3.00D-01 FncErr=1.00D-07 GrdErr=1.00D-07 EigMax=2.50D+02 EigMin=1.00D-04
 Number of steps in this run=     24 maximum allowed number of steps=    100.
 GradGradGradGradGradGradGradGradGradGradGradGradGradGradGradGradGradGrad

 Leave Link  103 at Fri Sep  6 16:31:01 2024, MaxMem=   104857600 cpu:               0.0 elap:               0.0
 (Enter /Users/asuyarger/Applications/G16/g16/l202.exe)
                          Input orientation:                          
 ---------------------------------------------------------------------
 Center     Atomic      Atomic             Coordinates (Angstroms)
 Number     Number       Type             X           Y           Z
 ---------------------------------------------------------------------
      1          6           0       -0.081374    0.280289    0.000000
      2          1           0        0.275280   -0.728521    0.000000
      3          1           0        0.275299    0.784688    0.873651
      4          1           0        0.275299    0.784688   -0.873651
      5          1           0       -1.151374    0.280302    0.000000
 ---------------------------------------------------------------------
                    Distance matrix (angstroms):
                    1          2          3          4          5
     1  C    0.000000
     2  H    1.070000   0.000000
     3  H    1.070000   1.747303   0.000000
     4  H    1.070000   1.747303   1.747303   0.000000
     5  H    1.070000   1.747303   1.747303   1.747303   0.000000
 Stoichiometry    CH4
 Framework group  TD[O(C),4C3(H)]
 Deg. of freedom     1
 Full point group                 TD      NOp  24
 Largest Abelian subgroup         D2      NOp   4
 Largest concise Abelian subgroup D2      NOp   4
                         Standard orientation:                         
 ---------------------------------------------------------------------
 Center     Atomic      Atomic             Coordinates (Angstroms)
 Number     Number       Type             X           Y           Z
 ---------------------------------------------------------------------
      1          6           0        0.000000    0.000000    0.000000
      2          1           0        0.617765    0.617765    0.617765
      3          1           0       -0.617765   -0.617765    0.617765
      4          1           0       -0.617765    0.617765   -0.617765
      5          1           0        0.617765   -0.617765   -0.617765
 ---------------------------------------------------------------------
 Rotational constants (GHZ):         164.2463651         164.2463651         164.2463651
 Leave Link  202 at Fri Sep  6 16:31:01 2024, MaxMem=   104857600 cpu:               0.0 elap:               0.0
 (Enter /Users/asuyarger/Applications/G16/g16/l301.exe)
 Standard basis: VSTO-6G (5D, 7F)
 Ernie: Thresh=  0.10000D-02 Tol=  0.10000D-05 Strict=F.
  NNHCO=     0 NNPyr=     0 NCTC=     0               EPep=         0.000000000
    EC=         7.257461533  ECS=         0.772224336   EG=         0.030830124
   EHC=         0.000163004  EAt=        -5.886852573  AtH=         0.604449838
 EPDDG=         0.000000000  ECC=         8.060678998 EAtT=         6.491302411
 There are     2 symmetry adapted cartesian basis functions of A   symmetry.
 There are     2 symmetry adapted cartesian basis functions of B1  symmetry.
 There are     2 symmetry adapted cartesian basis functions of B2  symmetry.
 There are     2 symmetry adapted cartesian basis functions of B3  symmetry.
 There are     2 symmetry adapted basis functions of A   symmetry.
 There are     2 symmetry adapted basis functions of B1  symmetry.
 There are     2 symmetry adapted basis functions of B2  symmetry.
 There are     2 symmetry adapted basis functions of B3  symmetry.
     8 basis functions,    48 primitive gaussians,     8 cartesian basis functions
     4 alpha electrons        4 beta electrons
       nuclear repulsion energy        14.5519814090 Hartrees.
 IExCor=    0 DFT=F Ex=HF Corr=None ExCW=0 ScaHFX=  1.000000
 ScaDFX=  1.000000  1.000000  1.000000  1.000000 ScalE2=  1.000000  1.000000
 IRadAn=      5 IRanWt=     -1 IRanGd=            0 ICorTp=0 IEmpDi=  4
 Integral buffers will be    131072 words long.
 Regular integral format.
 Two-electron integral symmetry is turned off.
 Leave Link  301 at Fri Sep  6 16:31:01 2024, MaxMem=   104857600 cpu:               0.0 elap:               0.0
 (Enter /Users/asuyarger/Applications/G16/g16/l302.exe)
 Do NDO integrals.
 NPDir=0 NMtPBC=     1 NCelOv=     1 NCel=       1 NClECP=     1 NCelD=      1
         NCelK=      1 NCelE2=     1 NClLst=     1 CellRange=     0.0.
 One-electron integrals computed using PRISM.
 NBasis=     8 RedAO= T EigKep=  1.00D+00  NBF=     2     2     2     2
 NBsUse=     8 1.00D-06 EigRej= -1.00D+00 NBFU=     2     2     2     2
 Leave Link  302 at Fri Sep  6 16:31:01 2024, MaxMem=   104857600 cpu:               0.0 elap:               0.0
 (Enter /Users/asuyarger/Applications/G16/g16/l303.exe)
 DipDrv:  MaxL=1.
 Leave Link  303 at Fri Sep  6 16:31:01 2024, MaxMem=   104857600 cpu:               0.0 elap:               0.0
 (Enter /Users/asuyarger/Applications/G16/g16/l401.exe)
 Simple Huckel Guess.
 JPrj=0 DoOrth=F DoCkMO=F.
 Initial guess orbital symmetries:
       Occupied  (A1) (T2) (T2) (T2)
       Virtual   (T2) (T2) (T2) (A1)
 The electronic state of the initial guess is 1-A1.
 Leave Link  401 at Fri Sep  6 16:31:01 2024, MaxMem=   104857600 cpu:               0.0 elap:               0.0
 (Enter /Users/asuyarger/Applications/G16/g16/l502.exe)
 Keep J ints in memory in canonical form, NReq=859233.
 FoFCou: FMM=F IPFlag=           0 FMFlag=           0 FMFlg1=           0
         NFxFlg=           0 DoJE=F BraDBF=F KetDBF=F FulRan=T
         wScrn=  0.000000 ICntrl=       600 IOpCl=  2 I1Cent=           0 NGrid=           0
         NMat0=    1 NMatS0=     14 NMatT0=    0 NMatD0=    1 NMtDS0=    0 NMtDT0=    0
 Symmetry not used in FoFCou.
 Two-electron integral symmetry not used.
 Closed shell SCF:
 Using DIIS extrapolation, IDIIS=  1040.
 Overlap will be assumed to be unity.
 NGot=   104857600 LenX=   104797180 LenY=   104796298
 Requested convergence on RMS density matrix=1.00D-08 within 128 cycles.
 Requested convergence on MAX density matrix=1.00D-06.
 Requested convergence on             energy=1.00D-06.
 No special actions if energy rises.

 Cycle   1  Pass 1  IDiag  1:
 E= 0.689471532253627E-02
 DIIS: error= 2.19D-02 at cycle   1 NSaved=   1.
 NSaved= 1 IEnMin= 1 EnMin= 0.689471532253627E-02 IErMin= 1 ErrMin= 2.19D-02
 ErrMax= 2.19D-02  0.00D+00 EMaxC= 1.00D-01 BMatC= 9.08D-03 BMatP= 9.08D-03
 IDIUse=3 WtCom= 7.81D-01 WtEn= 2.19D-01
 Coeff-Com:  0.100D+01
 Coeff-En:   0.100D+01
 Coeff:      0.100D+01
 GapD=    2.000 DampG=2.000 DampE=0.500 DampFc=1.0000 IDamp=-1.
 RMSDP=1.58D-02 MaxDP=7.26D-02              OVMax= 0.00D+00

 Cycle   2  Pass 1  IDiag  1:
 E=-0.150563444306808E-01 Delta-E=       -0.021951059753 Rises=F Damp=F
 DIIS: error= 5.27D-03 at cycle   2 NSaved=   2.
 NSaved= 2 IEnMin= 2 EnMin=-0.150563444306808E-01 IErMin= 2 ErrMin= 5.27D-03
 ErrMax= 5.27D-03  0.00D+00 EMaxC= 1.00D-01 BMatC= 9.09D-04 BMatP= 9.08D-03
 IDIUse=3 WtCom= 9.47D-01 WtEn= 5.27D-02
 Coeff-Com: -0.373D+00 0.137D+01
 Coeff-En:   0.000D+00 0.100D+01
 Coeff:     -0.353D+00 0.135D+01
 RMSDP=8.21D-03 MaxDP=2.35D-02 DE=-2.20D-02 OVMax= 0.00D+00

 Cycle   3  Pass 1  IDiag  3:
 E=-0.184981018420665E-01 Delta-E=       -0.003441757411 Rises=F Damp=F
 DIIS: error= 1.38D-03 at cycle   3 NSaved=   3.
 NSaved= 3 IEnMin= 3 EnMin=-0.184981018420665E-01 IErMin= 3 ErrMin= 1.38D-03
 ErrMax= 1.38D-03  0.00D+00 EMaxC= 1.00D-01 BMatC= 9.19D-05 BMatP= 9.09D-04
 IDIUse=3 WtCom= 9.86D-01 WtEn= 1.38D-02
 Coeff-Com:  0.489D+00-0.193D+01 0.244D+01
 Coeff-En:   0.000D+00 0.000D+00 0.100D+01
 Coeff:      0.482D+00-0.191D+01 0.242D+01
 Fock symm off for IB=3 I1=    1 I=    5 J=    2 Cut=1.00D-07 Err=8.53D-03
 Fock matrix is not symmetric: symmetry in diagonalization turned off.
 Gap=     0.729 Goal=   None    Shift=    0.000
 RMSDP=5.73D-03 MaxDP=1.84D-02 DE=-3.44D-03 OVMax= 1.44D-02

 Cycle   4  Pass 1  IDiag  3:
 E=-0.191219440248922E-01 Delta-E=       -0.000623842183 Rises=F Damp=F
 DIIS: error= 5.25D-06 at cycle   4 NSaved=   4.
 NSaved= 4 IEnMin= 4 EnMin=-0.191219440248922E-01 IErMin= 4 ErrMin= 5.25D-06
 ErrMax= 5.25D-06  0.00D+00 EMaxC= 1.00D-01 BMatC= 1.63D-09 BMatP= 9.19D-05
 IDIUse=1 WtCom= 1.00D+00 WtEn= 0.00D+00
 Coeff-Com:  0.489D+00-0.193D+01 0.244D+01 0.402D-05
 Coeff:      0.489D+00-0.193D+01 0.244D+01 0.402D-05
 Gap=     0.729 Goal=   None    Shift=    0.000
 RMSDP=4.50D-05 MaxDP=1.44D-04 DE=-6.24D-04 OVMax= 1.13D-04

 Cycle   5  Pass 1  IDiag  3:
 E=-0.191219432342944E-01 Delta-E=        0.000000000791 Rises=F Damp=F
 DIIS: error= 5.60D-06 at cycle   5 NSaved=   5.
 NSaved= 5 IEnMin= 4 EnMin=-0.191219440248922E-01 IErMin= 4 ErrMin= 5.25D-06
 ErrMax= 5.60D-06  0.00D+00 EMaxC= 1.00D-01 BMatC= 1.67D-09 BMatP= 1.63D-09
 IDIUse=1 WtCom= 1.00D+00 WtEn= 0.00D+00
 Large coefficients: NSaved=  5 BigCof=    0.00 CofMax=   10.00 Det=-1.49D-19
 Inversion failed.  Reducing to  4 matrices.
 Coeff-Com:  0.703D-03 0.246D-02-0.226D-05 0.997D+00
 Coeff:      0.703D-03 0.246D-02-0.226D-05 0.997D+00
 Gap=     0.730 Goal=   None    Shift=    0.000
 RMSDP=2.33D-05 MaxDP=7.43D-05 DE= 7.91D-10 OVMax= 5.83D-05

 Cycle   6  Pass 1  IDiag  3:
 E=-0.191219537135954E-01 Delta-E=       -0.000000010479 Rises=F Damp=F
 DIIS: error= 1.27D-08 at cycle   6 NSaved=   5.
 NSaved= 5 IEnMin= 5 EnMin=-0.191219537135954E-01 IErMin= 5 ErrMin= 1.27D-08
 ErrMax= 1.27D-08  0.00D+00 EMaxC= 1.00D-01 BMatC= 8.66D-15 BMatP= 1.63D-09
 IDIUse=1 WtCom= 1.00D+00 WtEn= 0.00D+00
 Large coefficients: NSaved=  5 BigCof=    0.00 CofMax=   10.00 Det=-8.84D-26
 Inversion failed.  Reducing to  4 matrices.
 Coeff-Com: -0.149D-04 0.690D-07-0.139D-02 0.100D+01
 Coeff:     -0.149D-04 0.690D-07-0.139D-02 0.100D+01
 Gap=     0.730 Goal=   None    Shift=    0.000
 RMSDP=5.35D-08 MaxDP=1.70D-07 DE=-1.05D-08 OVMax= 1.34D-07

 Cycle   7  Pass 1  IDiag  3:
 E=-0.191219537136611E-01 Delta-E=       -0.000000000000 Rises=F Damp=F
 DIIS: error= 3.58D-11 at cycle   7 NSaved=   5.
 NSaved= 5 IEnMin= 5 EnMin=-0.191219537136611E-01 IErMin= 5 ErrMin= 3.58D-11
 ErrMax= 3.58D-11  0.00D+00 EMaxC= 1.00D-01 BMatC= 6.47D-20 BMatP= 8.66D-15
 IDIUse=1 WtCom= 1.00D+00 WtEn= 0.00D+00
 Large coefficients: NSaved=  5 BigCof=    0.00 CofMax=   10.00 Det=-5.80D-29
 Inversion failed.  Reducing to  4 matrices.
 Coeff-Com: -0.441D-09-0.108D-05 0.233D-02 0.998D+00
 Coeff:     -0.441D-09-0.108D-05 0.233D-02 0.998D+00
 Gap=     0.730 Goal=   None    Shift=    0.000
 RMSDP=1.50D-10 MaxDP=4.77D-10 DE=-6.57D-14 OVMax= 3.74D-10

 Cycle   8  Pass 2  IDiag  1:
 SCF Done:  E(RPM6) = -0.191219537137E-01 A.U. after    8 cycles
            NFock=  7  Conv=0.15D-09     -V/T= 0.9982
 KE=-1.038041199436D+01 PE=-1.384620660409D+01 EE= 9.655515235770D+00
 Leave Link  502 at Fri Sep  6 16:31:01 2024, MaxMem=   104857600 cpu:               0.0 elap:               0.0
 (Enter /Users/asuyarger/Applications/G16/g16/l601.exe)
 Copying SCF densities to generalized density rwf, IOpCl= 0 IROHF=0.

 **********************************************************************

            Population analysis using the SCF density.

 **********************************************************************

 Orbital symmetries:
       Occupied  (A1) (T2) (T2) (T2)
       Virtual   (T2) (T2) (T2) (A1)
 The electronic state is 1-A1.
 Alpha  occ. eigenvalues --   -0.93936  -0.50614  -0.50614  -0.50614
 Alpha virt. eigenvalues --    0.22338   0.22338   0.22338   0.27120
     Molecular Orbital Coefficients:
                           1         2         3         4         5
                        (A1)--O   (T2)--O   (T2)--O   (T2)--O   (T2)--V
     Eigenvalues --    -0.93936  -0.50614  -0.50614  -0.50614   0.22338
   1 1   C  1S          0.73122   0.00000   0.00000  -0.00000  -0.00000
   2        1PX         0.00000   0.17232  -0.13612   0.74140   0.17014
   3        1PY        -0.00000  -0.25655   0.70453   0.18898   0.39224
   4        1PZ        -0.00000   0.70879   0.28810  -0.11184  -0.46831
   5 2   H  1S          0.34107   0.25609   0.35121   0.33563  -0.05736
   6 3   H  1S          0.34107   0.32518  -0.11494  -0.42735   0.62840
   7 4   H  1S          0.34107  -0.46649   0.22657  -0.18066  -0.42093
   8 5   H  1S          0.34107  -0.11478  -0.46284   0.27238  -0.15011
                           6         7         8
                        (T2)--V   (T2)--V   (A1)--V
     Eigenvalues --     0.22338   0.22338   0.27120
   1 1   C  1S         -0.00000   0.00000   0.68214
   2        1PX         0.60928  -0.04403   0.00000
   3        1PY        -0.14401  -0.47699   0.00000
   4        1PZ         0.10075  -0.41551   0.00000
   5 2   H  1S         -0.34509   0.57100  -0.36561
   6 3   H  1S          0.22225  -0.06433  -0.36561
   7 4   H  1S          0.52070   0.01064  -0.36561
   8 5   H  1S         -0.39785  -0.51730  -0.36561
     Density Matrix:
                           1         2         3         4         5
   1 1   C  1S          1.06937
   2        1PX        -0.00000   1.19578
   3        1PY        -0.00000  -0.00000   1.19578
   4        1PZ        -0.00000  -0.00000  -0.00000   1.19578
   5 2   H  1S          0.49880   0.49032   0.49032   0.49032   0.83582
   6 3   H  1S          0.49880  -0.49032  -0.49032   0.49032   0.03160
   7 4   H  1S          0.49880  -0.49032   0.49032  -0.49032   0.03160
   8 5   H  1S          0.49880   0.49032  -0.49032  -0.49032   0.03160
                           6         7         8
   6 3   H  1S          0.83582
   7 4   H  1S          0.03160   0.83582
   8 5   H  1S          0.03160   0.03160   0.83582
    Full Mulliken population analysis:
                           1         2         3         4         5
   1 1   C  1S          1.06937
   2        1PX         0.00000   1.19578
   3        1PY         0.00000   0.00000   1.19578
   4        1PZ         0.00000   0.00000   0.00000   1.19578
   5 2   H  1S          0.00000   0.00000   0.00000   0.00000   0.83582
   6 3   H  1S          0.00000   0.00000   0.00000   0.00000   0.00000
   7 4   H  1S          0.00000   0.00000   0.00000   0.00000   0.00000
   8 5   H  1S          0.00000   0.00000   0.00000   0.00000   0.00000
                           6         7         8
   6 3   H  1S          0.83582
   7 4   H  1S          0.00000   0.83582
   8 5   H  1S          0.00000   0.00000   0.83582
     Gross orbital populations:
                           1
   1 1   C  1S          1.06937
   2        1PX         1.19578
   3        1PY         1.19578
   4        1PZ         1.19578
   5 2   H  1S          0.83582
   6 3   H  1S          0.83582
   7 4   H  1S          0.83582
   8 5   H  1S          0.83582
          Condensed to atoms (all electrons):
               1          2          3          4          5
     1  C    4.656710   0.000000   0.000000   0.000000   0.000000
     2  H    0.000000   0.835823   0.000000   0.000000   0.000000
     3  H    0.000000   0.000000   0.835823   0.000000   0.000000
     4  H    0.000000   0.000000   0.000000   0.835823   0.000000
     5  H    0.000000   0.000000   0.000000   0.000000   0.835823
 Mulliken charges:
               1
     1  C   -0.656710
     2  H    0.164177
     3  H    0.164177
     4  H    0.164177
     5  H    0.164177
 Sum of Mulliken charges =  -0.00000
 Mulliken charges with hydrogens summed into heavy atoms:
               1
     1  C   -0.000000
 Charge=             -0.0000 electrons
 Dipole moment (field-independent basis, Debye):
    X=             -0.0000    Y=             -0.0000    Z=             -0.0000  Tot=              0.0000
 N-N= 1.455198140896D+01 E-N=-1.384620660356D+01  KE=-1.038041199436D+01
 Symmetry A    KE=-3.295294808639D+00
 Symmetry B1   KE=-2.361705728572D+00
 Symmetry B2   KE=-2.361705728572D+00
 Symmetry B3   KE=-2.361705728572D+00
 StAtR1:  DoIntr=F IAtCor=3 NETot=       8 Failed=F Sum=  2.00D+00 SumC=  0.00D+00
 There are a total of      110938 grid points.
 ElSum from          density=       12.3684588057
 ElSum from atomic densities=       10.0000021720

 Hirshfeld populations at iteration   1 (CX, CA, CB, DipXYZ):
               1          2          3          4          5          6
     1  C    0.000000   3.227123   3.227123   0.000000  -0.000000   0.000000
     2  H    0.000003   0.739277   0.739277  -0.042459  -0.042459  -0.042459
     3  H    0.000003   0.739277   0.739277   0.042459   0.042459  -0.042459
     4  H    0.000003   0.739277   0.739277   0.042459  -0.042459   0.042459
     5  H    0.000003   0.739277   0.739277  -0.042459   0.042459   0.042459
       Tot   0.000011   6.184229   6.184229   0.000000  -0.000000   0.000000

 Dip from Atomic Chgs              0.000000  -0.000000   0.000000
         Total Dipole              0.000000  -0.000000   0.000000

 Hirshfeld charges, spin densities, dipoles, and CM5 charges using IRadAn=      5:
              Q-H        S-H        Dx         Dy         Dz        Q-CM5   
     1  C   -2.454246   0.000000   0.000000  -0.000000   0.000000  -2.655046
     2  H   -0.478553   0.000000  -0.042459  -0.042459  -0.042459  -0.428353
     3  H   -0.478553   0.000000   0.042459   0.042459  -0.042459  -0.428353
     4  H   -0.478553   0.000000   0.042459  -0.042459   0.042459  -0.428353
     5  H   -0.478553   0.000000  -0.042459   0.042459   0.042459  -0.428353
       Tot  -4.368459   0.000000   0.000000  -0.000000   0.000000  -4.368459
 Hirshfeld charges with hydrogens summed into heavy atoms:
              Q-H       Q-CM5   
     1  C   -4.368459  -4.368459
 
 EQQ= 0.000000000000E+00 EQD= 0.000000000000E+00 EDD=-0.300468105540E-03
 EQQ+QD+DD=-0.300468105540E-03
 
 Orbital energies and kinetic energies (alpha):
                                 1                 2
   1         (A1)--O          -0.939363         -1.647647
   2         (T2)--O          -0.506144         -1.180853
   3         (T2)--O          -0.506144         -1.180853
   4         (T2)--O          -0.506144         -1.180853
   5         (T2)--V           0.223376         -0.648782
   6         (T2)--V           0.223376         -0.648782
   7         (T2)--V           0.223376         -0.648782
   8         (A1)--V           0.271195         -0.797304
 Total kinetic energy from orbitals=-1.038041199436D+01
 Leave Link  601 at Fri Sep  6 16:31:01 2024, MaxMem=   104857600 cpu:               0.1 elap:               0.1
 (Enter /Users/asuyarger/Applications/G16/g16/l701.exe)
 ... and contract with generalized density number  0.
 Compute integral first derivatives.
 Leave Link  701 at Fri Sep  6 16:31:01 2024, MaxMem=   104857600 cpu:               0.0 elap:               0.0
 (Enter /Users/asuyarger/Applications/G16/g16/l702.exe)
 L702 exits ... SP integral derivatives will be done elsewhere.
 Leave Link  702 at Fri Sep  6 16:31:01 2024, MaxMem=   104857600 cpu:               0.0 elap:               0.0
 (Enter /Users/asuyarger/Applications/G16/g16/l703.exe)
 Integral derivatives from FoFJK, PRISM(SPDF).
 Compute integral first derivatives, UseDBF=F ICtDFT=           0.
 Calling FoFJK, ICntrl=      2127 FMM=F ISym2X=1 I1Cent= 0 IOpClX= 0 NMat=1 NMatS=1 NMatT=0.
 FoFJK:  IHMeth=40 ICntrl=    2127 DoSepK=F KAlg= 0 I1Cent=           0 FoldK=F
 IRaf=         0 NMat=       1 IRICut=       1 DoRegI=T DoRafI=F ISym2E= 1 IDoP0=3 IntGTp=3.
 FoFCou: FMM=F IPFlag=           0 FMFlag=      100000 FMFlg1=         800
         NFxFlg=           0 DoJE=F BraDBF=F KetDBF=F FulRan=T
         wScrn=  0.000000 ICntrl=      2127 IOpCl=  0 I1Cent=           0 NGrid=           0
         NMat0=    1 NMatS0=      1 NMatT0=    0 NMatD0=    1 NMtDS0=    0 NMtDT0=    0
 Petite list used in FoFCou.
 Leave Link  703 at Fri Sep  6 16:31:01 2024, MaxMem=   104857600 cpu:               0.0 elap:               0.0
 (Enter /Users/asuyarger/Applications/G16/g16/l716.exe)
 Dipole        =-4.88498131D-15-1.11022302D-15-3.77475828D-15
 ***** Axes restored to original set *****
 -------------------------------------------------------------------
 Center     Atomic                   Forces (Hartrees/Bohr)
 Number     Number              X              Y              Z
 -------------------------------------------------------------------
      1        6          -0.000000000   -0.000000000    0.000000000
      2        1           0.002840630   -0.008034830   -0.000000000
      3        1           0.002840778    0.004017362    0.006958336
      4        1           0.002840778    0.004017362   -0.006958336
      5        1          -0.008522187    0.000000105    0.000000000
 -------------------------------------------------------------------
 Cartesian Forces:  Max     0.008522187 RMS     0.004400838
 Leave Link  716 at Fri Sep  6 16:31:01 2024, MaxMem=   104857600 cpu:               0.0 elap:               0.0
 (Enter /Users/asuyarger/Applications/G16/g16/l103.exe)

 GradGradGradGradGradGradGradGradGradGradGradGradGradGradGradGradGradGrad
 Berny optimization.
 FormGI is forming the generalized inverse of G from B-inverse, IUseBI=4.
 Internal  Forces:  Max     0.008522187 RMS     0.004555300
 Search for a local minimum.
 Step number   1 out of a maximum of   24
 All quantities printed in internal units (Hartrees-Bohrs-Radians)
 RMS Force = .45553D-02 SwitMx=.10000D-02 MixMth= 1
 Mixed Optimization -- RFO/linear search
 Second derivative matrix not updated -- first step.
 The second derivative matrix:
                          R1        R2        R3        R4        A1
           R1           0.37230
           R2           0.00000   0.37230
           R3           0.00000   0.00000   0.37230
           R4           0.00000   0.00000   0.00000   0.37230
           A1           0.00000   0.00000   0.00000   0.00000   0.16000
           A2           0.00000   0.00000   0.00000   0.00000   0.00000
           A3           0.00000   0.00000   0.00000   0.00000   0.00000
           A4           0.00000   0.00000   0.00000   0.00000   0.00000
           A5           0.00000   0.00000   0.00000   0.00000   0.00000
           A6           0.00000   0.00000   0.00000   0.00000   0.00000
           D1           0.00000   0.00000   0.00000   0.00000   0.00000
           D2           0.00000   0.00000   0.00000   0.00000   0.00000
           D3           0.00000   0.00000   0.00000   0.00000   0.00000
           D4           0.00000   0.00000   0.00000   0.00000   0.00000
                          A2        A3        A4        A5        A6
           A2           0.16000
           A3           0.00000   0.16000
           A4           0.00000   0.00000   0.16000
           A5           0.00000   0.00000   0.00000   0.16000
           A6           0.00000   0.00000   0.00000   0.00000   0.16000
           D1           0.00000   0.00000   0.00000   0.00000   0.00000
           D2           0.00000   0.00000   0.00000   0.00000   0.00000
           D3           0.00000   0.00000   0.00000   0.00000   0.00000
           D4           0.00000   0.00000   0.00000   0.00000   0.00000
                          D1        D2        D3        D4
           D1           0.00499
           D2           0.00000   0.00499
           D3           0.00000   0.00000   0.00499
           D4           0.00000   0.00000   0.00000   0.00499
 ITU=  0
     Eigenvalues ---    0.05269   0.05891   0.08766   0.16000   0.16000
     Eigenvalues ---    0.37230   0.37230   0.37230   0.37230
 RFO step:  Lambda=-7.78679134D-04 EMin= 5.26880967D-02
 Linear search not attempted -- first point.
 Iteration  1 RMS(Cart)=  0.01220999 RMS(Int)=  0.00000000
 Iteration  2 RMS(Cart)=  0.00000000 RMS(Int)=  0.00000000
 ITry= 1 IFail=0 DXMaxC= 2.28D-02 DCOld= 1.00D+10 DXMaxT= 3.00D-01 DXLimC= 3.00D+00 Rises=F
 ClnCor:  largest displacement from symmetrization is 6.86D-15 for atom     4.
 Variable       Old X    -DE/DX   Delta X   Delta X   Delta X     New X
                                 (Linear)    (Quad)   (Total)
    R1        2.02201   0.00852   0.00000   0.02284   0.02284   2.04485
    R2        2.02201   0.00852   0.00000   0.02284   0.02284   2.04485
    R3        2.02201   0.00852   0.00000   0.02284   0.02284   2.04485
    R4        2.02201   0.00852   0.00000   0.02284   0.02284   2.04485
    A1        1.91063   0.00000   0.00000  -0.00000  -0.00000   1.91063
    A2        1.91063  -0.00000   0.00000  -0.00000  -0.00000   1.91063
    A3        1.91063  -0.00000   0.00000   0.00000   0.00000   1.91063
    A4        1.91063  -0.00000   0.00000  -0.00000   0.00000   1.91063
    A5        1.91063   0.00000   0.00000   0.00000  -0.00000   1.91063
    A6        1.91063   0.00000   0.00000   0.00000  -0.00000   1.91063
    D1       -2.09440   0.00000   0.00000   0.00000   0.00000  -2.09440
    D2        2.09440  -0.00000   0.00000  -0.00000  -0.00000   2.09440
    D3       -2.09440  -0.00000   0.00000  -0.00000   0.00000  -2.09440
    D4        2.09440  -0.00000   0.00000  -0.00000   0.00000   2.09440
         Item               Value     Threshold  Converged?
 Maximum Force            0.008522     0.000015     NO 
 RMS     Force            0.004555     0.000010     NO 
 Maximum Displacement     0.022843     0.000060     NO 
 RMS     Displacement     0.012210     0.000040     NO 
 Predicted change in Energy=-3.901539D-04
 Lowest energy point so far.  Saving SCF results.
 GradGradGradGradGradGradGradGradGradGradGradGradGradGradGradGradGradGrad

 Leave Link  103 at Fri Sep  6 16:31:01 2024, MaxMem=   104857600 cpu:               0.0 elap:               0.0
 (Enter /Users/asuyarger/Applications/G16/g16/l202.exe)
                          Input orientation:                          
 ---------------------------------------------------------------------
 Center     Atomic      Atomic             Coordinates (Angstroms)
 Number     Number       Type             X           Y           Z
 ---------------------------------------------------------------------
      1          6           0       -0.081374    0.280289   -0.000000
      2          1           0        0.279309   -0.739917   -0.000000
      3          1           0        0.279328    0.790386    0.883521
      4          1           0        0.279328    0.790386   -0.883521
      5          1           0       -1.163462    0.280303    0.000000
 ---------------------------------------------------------------------
                    Distance matrix (angstroms):
                    1          2          3          4          5
     1  C    0.000000
     2  H    1.082088   0.000000
     3  H    1.082088   1.767042   0.000000
     4  H    1.082088   1.767042   1.767042   0.000000
     5  H    1.082088   1.767042   1.767042   1.767042   0.000000
 Stoichiometry    CH4
 Framework group  TD[O(C),4C3(H)]
 Deg. of freedom     1
 Full point group                 TD      NOp  24
 RotChk:  IX=0 Diff= 3.11D-15
 Largest Abelian subgroup         D2      NOp   4
 Largest concise Abelian subgroup D2      NOp   4
                         Standard orientation:                         
 ---------------------------------------------------------------------
 Center     Atomic      Atomic             Coordinates (Angstroms)
 Number     Number       Type             X           Y           Z
 ---------------------------------------------------------------------
      1          6           0        0.000000    0.000000    0.000000
      2          1           0        0.624744    0.624744    0.624744
      3          1           0       -0.624744   -0.624744    0.624744
      4          1           0       -0.624744    0.624744   -0.624744
      5          1           0        0.624744   -0.624744   -0.624744
 ---------------------------------------------------------------------
 Rotational constants (GHZ):         160.5973032         160.5973032         160.5973032
 Leave Link  202 at Fri Sep  6 16:31:02 2024, MaxMem=   104857600 cpu:               0.0 elap:               0.0
 (Enter /Users/asuyarger/Applications/G16/g16/l301.exe)
 Standard basis: VSTO-6G (5D, 7F)
 Ernie: Thresh=  0.10000D-02 Tol=  0.10000D-05 Strict=F.
  NNHCO=     0 NNPyr=     0 NCTC=     0               EPep=         0.000000000
    EC=         7.211158930  ECS=         0.746848926   EG=         0.030940879
   EHC=         0.000142447  EAt=        -5.886852573  AtH=         0.604449838
 EPDDG=         0.000000000  ECC=         7.989091182 EAtT=         6.491302411
 There are     2 symmetry adapted cartesian basis functions of A   symmetry.
 There are     2 symmetry adapted cartesian basis functions of B1  symmetry.
 There are     2 symmetry adapted cartesian basis functions of B2  symmetry.
 There are     2 symmetry adapted cartesian basis functions of B3  symmetry.
 There are     2 symmetry adapted basis functions of A   symmetry.
 There are     2 symmetry adapted basis functions of B1  symmetry.
 There are     2 symmetry adapted basis functions of B2  symmetry.
 There are     2 symmetry adapted basis functions of B3  symmetry.
     8 basis functions,    48 primitive gaussians,     8 cartesian basis functions
     4 alpha electrons        4 beta electrons
       nuclear repulsion energy        14.4803935930 Hartrees.
 IExCor=    0 DFT=F Ex=HF Corr=None ExCW=0 ScaHFX=  1.000000
 ScaDFX=  1.000000  1.000000  1.000000  1.000000 ScalE2=  1.000000  1.000000
 IRadAn=      5 IRanWt=     -1 IRanGd=            0 ICorTp=0 IEmpDi=  4
 Integral buffers will be    131072 words long.
 Regular integral format.
 Two-electron integral symmetry is turned off.
 Leave Link  301 at Fri Sep  6 16:31:02 2024, MaxMem=   104857600 cpu:               0.0 elap:               0.0
 (Enter /Users/asuyarger/Applications/G16/g16/l302.exe)
 Do NDO integrals.
 NPDir=0 NMtPBC=     1 NCelOv=     1 NCel=       1 NClECP=     1 NCelD=      1
         NCelK=      1 NCelE2=     1 NClLst=     1 CellRange=     0.0.
 One-electron integrals computed using PRISM.
 NBasis=     8 RedAO= T EigKep=  1.00D+00  NBF=     2     2     2     2
 NBsUse=     8 1.00D-06 EigRej= -1.00D+00 NBFU=     2     2     2     2
 Leave Link  302 at Fri Sep  6 16:31:02 2024, MaxMem=   104857600 cpu:               0.0 elap:               0.0
 (Enter /Users/asuyarger/Applications/G16/g16/l303.exe)
 DipDrv:  MaxL=1.
 Leave Link  303 at Fri Sep  6 16:31:02 2024, MaxMem=   104857600 cpu:               0.0 elap:               0.0
 (Enter /Users/asuyarger/Applications/G16/g16/l401.exe)
 Initial guess from the checkpoint file:  "CH4_PM6_Opt_Freq_Full.chk"
 B after Tr=     0.000000    0.000000    0.000000
         Rot=    1.000000   -0.000000   -0.000000    0.000000 Ang=   0.00 deg.
 Guess basis will be translated and rotated to current coordinates.
 JPrj=0 DoOrth=T DoCkMO=T.
 Initial guess orbital symmetries:
       Occupied  (A1) (T2) (T2) (T2)
       Virtual   (T2) (T2) (T2) (A1)
 The electronic state of the initial guess is 1-A1.
 Leave Link  401 at Fri Sep  6 16:31:02 2024, MaxMem=   104857600 cpu:               0.0 elap:               0.0
 (Enter /Users/asuyarger/Applications/G16/g16/l502.exe)
 Keep J ints in memory in canonical form, NReq=859233.
 FoFCou: FMM=F IPFlag=           0 FMFlag=           0 FMFlg1=           0
         NFxFlg=           0 DoJE=F BraDBF=F KetDBF=F FulRan=T
         wScrn=  0.000000 ICntrl=       600 IOpCl=  2 I1Cent=           0 NGrid=           0
         NMat0=    1 NMatS0=     14 NMatT0=    0 NMatD0=    1 NMtDS0=    0 NMtDT0=    0
 Symmetry not used in FoFCou.
 Two-electron integral symmetry not used.
 Closed shell SCF:
 Using DIIS extrapolation, IDIIS=  1040.
 Overlap will be assumed to be unity.
 NGot=   104857600 LenX=   104797180 LenY=   104796298
 Requested convergence on RMS density matrix=1.00D-08 within 128 cycles.
 Requested convergence on MAX density matrix=1.00D-06.
 Requested convergence on             energy=1.00D-06.
 No special actions if energy rises.
 An orbital has undefined symmetry, so N**3 symmetry is turned off.

 Cycle   1  Pass 1  IDiag  1:
 E=-0.195523725280502E-01
 DIIS: error= 6.99D-04 at cycle   1 NSaved=   1.
 NSaved= 1 IEnMin= 1 EnMin=-0.195523725280502E-01 IErMin= 1 ErrMin= 6.99D-04
 ErrMax= 6.99D-04  0.00D+00 EMaxC= 1.00D-01 BMatC= 8.19D-06 BMatP= 8.19D-06
 IDIUse=3 WtCom= 9.93D-01 WtEn= 6.99D-03
 Coeff-Com:  0.100D+01
 Coeff-En:   0.100D+01
 Coeff:      0.100D+01
 RMSDP=4.39D-04 MaxDP=2.33D-03              OVMax= 0.00D+00

 Cycle   2  Pass 1  IDiag  3:
 E=-0.195704590634556E-01 Delta-E=       -0.000018086535 Rises=F Damp=F
 DIIS: error= 1.77D-04 at cycle   2 NSaved=   2.
 NSaved= 2 IEnMin= 2 EnMin=-0.195704590634556E-01 IErMin= 2 ErrMin= 1.77D-04
 ErrMax= 1.77D-04  0.00D+00 EMaxC= 1.00D-01 BMatC= 6.58D-07 BMatP= 8.19D-06
 IDIUse=3 WtCom= 9.98D-01 WtEn= 1.77D-03
 Coeff-Com: -0.354D+00 0.135D+01
 Coeff-En:   0.000D+00 0.100D+01
 Coeff:     -0.354D+00 0.135D+01
 Gap=     0.725 Goal=   None    Shift=    0.000
 RMSDP=1.93D-04 MaxDP=7.98D-04 DE=-1.81D-05 OVMax= 8.00D-04

 Cycle   3  Pass 1  IDiag  3:
 E=-0.195724643165178E-01 Delta-E=       -0.000002005253 Rises=F Damp=F
 DIIS: error= 2.75D-05 at cycle   3 NSaved=   3.
 NSaved= 3 IEnMin= 3 EnMin=-0.195724643165178E-01 IErMin= 3 ErrMin= 2.75D-05
 ErrMax= 2.75D-05  0.00D+00 EMaxC= 1.00D-01 BMatC= 3.64D-08 BMatP= 6.58D-07
 IDIUse=1 WtCom= 1.00D+00 WtEn= 0.00D+00
 Coeff-Com:  0.479D+00-0.189D+01 0.241D+01
 Coeff:      0.479D+00-0.189D+01 0.241D+01
 Gap=     0.725 Goal=   None    Shift=    0.000
 RMSDP=1.14D-04 MaxDP=3.66D-04 DE=-2.01D-06 OVMax= 3.30D-04

 Cycle   4  Pass 1  IDiag  3:
 E=-0.195727106299444E-01 Delta-E=       -0.000000246313 Rises=F Damp=F
 DIIS: error= 5.61D-09 at cycle   4 NSaved=   4.
 NSaved= 4 IEnMin= 4 EnMin=-0.195727106299444E-01 IErMin= 4 ErrMin= 5.61D-09
 ErrMax= 5.61D-09  0.00D+00 EMaxC= 1.00D-01 BMatC= 1.70D-15 BMatP= 3.64D-08
 IDIUse=1 WtCom= 1.00D+00 WtEn= 0.00D+00
 Large coefficients: NSaved=  4 BigCof=    0.00 CofMax=   10.00 Det=-1.26D-22
 Inversion failed.  Reducing to  3 matrices.
 Coeff-Com:  0.190D-04-0.244D-03 0.100D+01
 Coeff:      0.190D-04-0.244D-03 0.100D+01
 Gap=     0.725 Goal=   None    Shift=    0.000
 RMSDP=2.32D-08 MaxDP=7.41D-08 DE=-2.46D-07 OVMax= 6.68D-08

 Cycle   5  Pass 1  IDiag  3:
 E=-0.195727106299479E-01 Delta-E=       -0.000000000000 Rises=F Damp=F
 DIIS: error= 1.52D-12 at cycle   5 NSaved=   4.
 NSaved= 4 IEnMin= 4 EnMin=-0.195727106299479E-01 IErMin= 4 ErrMin= 1.52D-12
 ErrMax= 1.52D-12  0.00D+00 EMaxC= 1.00D-01 BMatC= 3.95D-23 BMatP= 1.70D-15
 IDIUse=1 WtCom= 1.00D+00 WtEn= 0.00D+00
 Large coefficients: NSaved=  4 BigCof=    0.00 CofMax=   10.00 Det=-5.64D-23
 Inversion failed.  Reducing to  3 matrices.
 Coeff-Com: -0.103D-07 0.239D-04 0.100D+01
 Coeff:     -0.103D-07 0.239D-04 0.100D+01
 Gap=     0.725 Goal=   None    Shift=    0.000
 RMSDP=1.61D-12 MaxDP=4.06D-12 DE=-3.55D-15 OVMax= 6.58D-12

 Cycle   6  Pass 2  IDiag  1:
 SCF Done:  E(RPM6) = -0.195727106299E-01 A.U. after    6 cycles
            NFock=  5  Conv=0.16D-11     -V/T= 0.9981
 KE=-1.035901751086D+01 PE=-1.376468347626D+01 EE= 9.623734683471D+00
 Leave Link  502 at Fri Sep  6 16:31:02 2024, MaxMem=   104857600 cpu:               0.0 elap:               0.0
 (Enter /Users/asuyarger/Applications/G16/g16/l701.exe)
 ... and contract with generalized density number  0.
 Compute integral first derivatives.
 Leave Link  701 at Fri Sep  6 16:31:02 2024, MaxMem=   104857600 cpu:               0.0 elap:               0.0
 (Enter /Users/asuyarger/Applications/G16/g16/l702.exe)
 L702 exits ... SP integral derivatives will be done elsewhere.
 Leave Link  702 at Fri Sep  6 16:31:02 2024, MaxMem=   104857600 cpu:               0.0 elap:               0.0
 (Enter /Users/asuyarger/Applications/G16/g16/l703.exe)
 Integral derivatives from FoFJK, PRISM(SPDF).
 Compute integral first derivatives, UseDBF=F ICtDFT=           0.
 Calling FoFJK, ICntrl=      2127 FMM=F ISym2X=1 I1Cent= 0 IOpClX= 0 NMat=1 NMatS=1 NMatT=0.
 FoFJK:  IHMeth=40 ICntrl=    2127 DoSepK=F KAlg= 0 I1Cent=           0 FoldK=F
 IRaf=         0 NMat=       1 IRICut=       1 DoRegI=T DoRafI=F ISym2E= 1 IDoP0=3 IntGTp=3.
 FoFCou: FMM=F IPFlag=           0 FMFlag=      100000 FMFlg1=         800
         NFxFlg=           0 DoJE=F BraDBF=F KetDBF=F FulRan=T
         wScrn=  0.000000 ICntrl=      2127 IOpCl=  0 I1Cent=           0 NGrid=           0
         NMat0=    1 NMatS0=      1 NMatT0=    0 NMatD0=    1 NMtDS0=    0 NMtDT0=    0
 Petite list used in FoFCou.
 Leave Link  703 at Fri Sep  6 16:31:02 2024, MaxMem=   104857600 cpu:               0.0 elap:               0.0
 (Enter /Users/asuyarger/Applications/G16/g16/l716.exe)
 Dipole        = 8.95283847D-13 1.97131200D-12-9.89208715D-13
 ***** Axes restored to original set *****
 -------------------------------------------------------------------
 Center     Atomic                   Forces (Hartrees/Bohr)
 Number     Number              X              Y              Z
 -------------------------------------------------------------------
      1        6          -0.000000000    0.000000000    0.000000000
      2        1           0.000461766   -0.001306122   -0.000000000
      3        1           0.000461790    0.000653052    0.001131130
      4        1           0.000461790    0.000653052   -0.001131130
      5        1          -0.001385346    0.000000017    0.000000000
 -------------------------------------------------------------------
 Cartesian Forces:  Max     0.001385346 RMS     0.000715389
 Leave Link  716 at Fri Sep  6 16:31:02 2024, MaxMem=   104857600 cpu:               0.0 elap:               0.0
 (Enter /Users/asuyarger/Applications/G16/g16/l103.exe)

 GradGradGradGradGradGradGradGradGradGradGradGradGradGradGradGradGradGrad
 Berny optimization.
 Using GEDIIS/GDIIS optimizer.
 FormGI is forming the generalized inverse of G from B-inverse, IUseBI=4.
 Internal  Forces:  Max     0.001385346 RMS     0.000740498
 Search for a local minimum.
 Step number   2 out of a maximum of   24
 All quantities printed in internal units (Hartrees-Bohrs-Radians)
 RMS Force = .74050D-03 SwitMx=.10000D-02 MixMth= 2
 Mixed Optimization -- En-DIIS/RFO-DIIS
 Update second derivatives using D2CorX and points    1    2
 DE= -4.51D-04 DEPred=-3.90D-04 R= 1.16D+00
 TightC=F SS=  1.41D+00  RLast= 4.57D-02 DXNew= 5.0454D-01 1.3706D-01
 Trust test= 1.16D+00 RLast= 4.57D-02 DXMaxT set to 3.00D-01
 The second derivative matrix:
                          R1        R2        R3        R4        A1
           R1           0.35733
           R2          -0.01497   0.35733
           R3          -0.01497  -0.01497   0.35733
           R4          -0.01497  -0.01497  -0.01497   0.35733
           A1           0.00000   0.00000   0.00000   0.00000   0.16000
           A2          -0.00000  -0.00000  -0.00000  -0.00000  -0.00000
           A3           0.00000   0.00000   0.00000   0.00000   0.00000
           A4           0.00000   0.00000   0.00000   0.00000   0.00000
           A5           0.00000   0.00000   0.00000   0.00000   0.00000
           A6          -0.00000  -0.00000  -0.00000  -0.00000  -0.00000
           D1          -0.00000  -0.00000  -0.00000  -0.00000  -0.00000
           D2           0.00000   0.00000   0.00000   0.00000   0.00000
           D3           0.00000   0.00000   0.00000   0.00000   0.00000
           D4           0.00000   0.00000   0.00000   0.00000   0.00000
                          A2        A3        A4        A5        A6
           A2           0.16000
           A3          -0.00000   0.16000
           A4          -0.00000   0.00000   0.16000
           A5          -0.00000   0.00000   0.00000   0.16000
           A6           0.00000  -0.00000  -0.00000  -0.00000   0.16000
           D1           0.00000  -0.00000  -0.00000  -0.00000   0.00000
           D2          -0.00000   0.00000   0.00000   0.00000  -0.00000
           D3          -0.00000   0.00000   0.00000   0.00000  -0.00000
           D4          -0.00000   0.00000   0.00000   0.00000  -0.00000
                          D1        D2        D3        D4
           D1           0.00499
           D2          -0.00000   0.00499
           D3          -0.00000   0.00000   0.00499
           D4          -0.00000   0.00000   0.00000   0.00499
 ITU=  1  0
 Use linear search instead of GDIIS.
     Eigenvalues ---    0.05269   0.05891   0.08766   0.16000   0.16000
     Eigenvalues ---    0.31243   0.37230   0.37230   0.37230
 RFO step:  Lambda= 0.00000000D+00 EMin= 5.26880967D-02
 Quartic linear search produced a step of  0.19819.
 Iteration  1 RMS(Cart)=  0.00241992 RMS(Int)=  0.00000000
 Iteration  2 RMS(Cart)=  0.00000000 RMS(Int)=  0.00000000
 ITry= 1 IFail=0 DXMaxC= 4.53D-03 DCOld= 1.00D+10 DXMaxT= 3.00D-01 DXLimC= 3.00D+00 Rises=F
 ClnCor:  largest displacement from symmetrization is 1.48D-12 for atom     3.
 Variable       Old X    -DE/DX   Delta X   Delta X   Delta X     New X
                                 (Linear)    (Quad)   (Total)
    R1        2.04485   0.00139   0.00453   0.00000   0.00453   2.04938
    R2        2.04485   0.00139   0.00453  -0.00000   0.00453   2.04938
    R3        2.04485   0.00139   0.00453   0.00000   0.00453   2.04938
    R4        2.04485   0.00139   0.00453  -0.00000   0.00453   2.04938
    A1        1.91063  -0.00000   0.00000  -0.00000   0.00000   1.91063
    A2        1.91063   0.00000   0.00000   0.00000   0.00000   1.91063
    A3        1.91063  -0.00000  -0.00000   0.00000   0.00000   1.91063
    A4        1.91063  -0.00000  -0.00000  -0.00000   0.00000   1.91063
    A5        1.91063  -0.00000   0.00000  -0.00000   0.00000   1.91063
    A6        1.91063   0.00000   0.00000   0.00000   0.00000   1.91063
    D1       -2.09440   0.00000   0.00000   0.00000  -0.00000  -2.09440
    D2        2.09440  -0.00000   0.00000  -0.00000   0.00000   2.09440
    D3       -2.09440  -0.00000   0.00000  -0.00000  -0.00000  -2.09440
    D4        2.09440  -0.00000  -0.00000  -0.00000   0.00000   2.09440
         Item               Value     Threshold  Converged?
 Maximum Force            0.001385     0.000015     NO 
 RMS     Force            0.000740     0.000010     NO 
 Maximum Displacement     0.004527     0.000060     NO 
 RMS     Displacement     0.002420     0.000040     NO 
 Predicted change in Energy=-1.227998D-05
 Lowest energy point so far.  Saving SCF results.
 GradGradGradGradGradGradGradGradGradGradGradGradGradGradGradGradGradGrad

 Leave Link  103 at Fri Sep  6 16:31:02 2024, MaxMem=   104857600 cpu:               0.0 elap:               0.0
 (Enter /Users/asuyarger/Applications/G16/g16/l202.exe)
                          Input orientation:                          
 ---------------------------------------------------------------------
 Center     Atomic      Atomic             Coordinates (Angstroms)
 Number     Number       Type             X           Y           Z
 ---------------------------------------------------------------------
      1          6           0       -0.081374    0.280289    0.000000
      2          1           0        0.280108   -0.742176   -0.000000
      3          1           0        0.280127    0.791515    0.885477
      4          1           0        0.280127    0.791515   -0.885477
      5          1           0       -1.165858    0.280303    0.000000
 ---------------------------------------------------------------------
                    Distance matrix (angstroms):
                    1          2          3          4          5
     1  C    0.000000
     2  H    1.084484   0.000000
     3  H    1.084484   1.770954   0.000000
     4  H    1.084484   1.770954   1.770954   0.000000
     5  H    1.084484   1.770954   1.770954   1.770954   0.000000
 Stoichiometry    CH4
 Framework group  TD[O(C),4C3(H)]
 Deg. of freedom     1
 Full point group                 TD      NOp  24
 RotChk:  IX=0 Diff= 2.53D-15
 Largest Abelian subgroup         D2      NOp   4
 Largest concise Abelian subgroup D2      NOp   4
                         Standard orientation:                         
 ---------------------------------------------------------------------
 Center     Atomic      Atomic             Coordinates (Angstroms)
 Number     Number       Type             X           Y           Z
 ---------------------------------------------------------------------
      1          6           0        0.000000    0.000000    0.000000
      2          1           0        0.626127    0.626127    0.626127
      3          1           0       -0.626127   -0.626127    0.626127
      4          1           0       -0.626127    0.626127   -0.626127
      5          1           0        0.626127   -0.626127   -0.626127
 ---------------------------------------------------------------------
 Rotational constants (GHZ):         159.8885401         159.8885401         159.8885401
 Leave Link  202 at Fri Sep  6 16:31:02 2024, MaxMem=   104857600 cpu:               0.0 elap:               0.0
 (Enter /Users/asuyarger/Applications/G16/g16/l301.exe)
 Standard basis: VSTO-6G (5D, 7F)
 Ernie: Thresh=  0.10000D-02 Tol=  0.10000D-05 Strict=F.
  NNHCO=     0 NNPyr=     0 NCTC=     0               EPep=         0.000000000
    EC=         7.202029087  ECS=         0.741897246   EG=         0.030960304
   EHC=         0.000138716  EAt=        -5.886852573  AtH=         0.604449838
 EPDDG=         0.000000000  ECC=         7.975025353 EAtT=         6.491302411
 There are     2 symmetry adapted cartesian basis functions of A   symmetry.
 There are     2 symmetry adapted cartesian basis functions of B1  symmetry.
 There are     2 symmetry adapted cartesian basis functions of B2  symmetry.
 There are     2 symmetry adapted cartesian basis functions of B3  symmetry.
 There are     2 symmetry adapted basis functions of A   symmetry.
 There are     2 symmetry adapted basis functions of B1  symmetry.
 There are     2 symmetry adapted basis functions of B2  symmetry.
 There are     2 symmetry adapted basis functions of B3  symmetry.
     8 basis functions,    48 primitive gaussians,     8 cartesian basis functions
     4 alpha electrons        4 beta electrons
       nuclear repulsion energy        14.4663277641 Hartrees.
 IExCor=    0 DFT=F Ex=HF Corr=None ExCW=0 ScaHFX=  1.000000
 ScaDFX=  1.000000  1.000000  1.000000  1.000000 ScalE2=  1.000000  1.000000
 IRadAn=      5 IRanWt=     -1 IRanGd=            0 ICorTp=0 IEmpDi=  4
 Integral buffers will be    131072 words long.
 Regular integral format.
 Two-electron integral symmetry is turned off.
 Leave Link  301 at Fri Sep  6 16:31:02 2024, MaxMem=   104857600 cpu:               0.0 elap:               0.0
 (Enter /Users/asuyarger/Applications/G16/g16/l302.exe)
 Do NDO integrals.
 NPDir=0 NMtPBC=     1 NCelOv=     1 NCel=       1 NClECP=     1 NCelD=      1
         NCelK=      1 NCelE2=     1 NClLst=     1 CellRange=     0.0.
 One-electron integrals computed using PRISM.
 NBasis=     8 RedAO= T EigKep=  1.00D+00  NBF=     2     2     2     2
 NBsUse=     8 1.00D-06 EigRej= -1.00D+00 NBFU=     2     2     2     2
 Leave Link  302 at Fri Sep  6 16:31:02 2024, MaxMem=   104857600 cpu:               0.0 elap:               0.0
 (Enter /Users/asuyarger/Applications/G16/g16/l303.exe)
 DipDrv:  MaxL=1.
 Leave Link  303 at Fri Sep  6 16:31:02 2024, MaxMem=   104857600 cpu:               0.0 elap:               0.0
 (Enter /Users/asuyarger/Applications/G16/g16/l401.exe)
 Initial guess from the checkpoint file:  "CH4_PM6_Opt_Freq_Full.chk"
 B after Tr=    -0.000000    0.000000   -0.000000
         Rot=    1.000000    0.000000    0.000000   -0.000000 Ang=   0.00 deg.
 Guess basis will be translated and rotated to current coordinates.
 JPrj=0 DoOrth=T DoCkMO=T.
 Initial guess orbital symmetries:
       Occupied  (A1) (T2) (T2) (T2)
       Virtual   (T2) (T2) (T2) (A1)
 The electronic state of the initial guess is 1-A1.
 Leave Link  401 at Fri Sep  6 16:31:02 2024, MaxMem=   104857600 cpu:               0.0 elap:               0.0
 (Enter /Users/asuyarger/Applications/G16/g16/l502.exe)
 Keep J ints in memory in canonical form, NReq=859233.
 FoFCou: FMM=F IPFlag=           0 FMFlag=           0 FMFlg1=           0
         NFxFlg=           0 DoJE=F BraDBF=F KetDBF=F FulRan=T
         wScrn=  0.000000 ICntrl=       600 IOpCl=  2 I1Cent=           0 NGrid=           0
         NMat0=    1 NMatS0=     14 NMatT0=    0 NMatD0=    1 NMtDS0=    0 NMtDT0=    0
 Symmetry not used in FoFCou.
 Two-electron integral symmetry not used.
 Closed shell SCF:
 Using DIIS extrapolation, IDIIS=  1040.
 Overlap will be assumed to be unity.
 NGot=   104857600 LenX=   104797180 LenY=   104796298
 Requested convergence on RMS density matrix=1.00D-08 within 128 cycles.
 Requested convergence on MAX density matrix=1.00D-06.
 Requested convergence on             energy=1.00D-06.
 No special actions if energy rises.
 An orbital has undefined symmetry, so N**3 symmetry is turned off.

 Cycle   1  Pass 1  IDiag  1:
 E=-0.195844414808342E-01
 DIIS: error= 1.38D-04 at cycle   1 NSaved=   1.
 NSaved= 1 IEnMin= 1 EnMin=-0.195844414808342E-01 IErMin= 1 ErrMin= 1.38D-04
 ErrMax= 1.38D-04  0.00D+00 EMaxC= 1.00D-01 BMatC= 3.20D-07 BMatP= 3.20D-07
 IDIUse=3 WtCom= 9.99D-01 WtEn= 1.38D-03
 Coeff-Com:  0.100D+01
 Coeff-En:   0.100D+01
 Coeff:      0.100D+01
 RMSDP=8.71D-05 MaxDP=4.61D-04              OVMax= 0.00D+00

 Cycle   2  Pass 1  IDiag  3:
 E=-0.195851499978801E-01 Delta-E=       -0.000000708517 Rises=F Damp=F
 DIIS: error= 3.49D-05 at cycle   2 NSaved=   2.
 NSaved= 2 IEnMin= 2 EnMin=-0.195851499978801E-01 IErMin= 2 ErrMin= 3.49D-05
 ErrMax= 3.49D-05  0.00D+00 EMaxC= 1.00D-01 BMatC= 2.59D-08 BMatP= 3.20D-07
 IDIUse=1 WtCom= 1.00D+00 WtEn= 0.00D+00
 Coeff-Com: -0.355D+00 0.136D+01
 Coeff:     -0.355D+00 0.136D+01
 Gap=     0.724 Goal=   None    Shift=    0.000
 RMSDP=3.85D-05 MaxDP=1.58D-04 DE=-7.09D-07 OVMax= 1.59D-04

 Cycle   3  Pass 1  IDiag  3:
 E=-0.195852295327157E-01 Delta-E=       -0.000000079535 Rises=F Damp=F
 DIIS: error= 5.58D-06 at cycle   3 NSaved=   3.
 NSaved= 3 IEnMin= 3 EnMin=-0.195852295327157E-01 IErMin= 3 ErrMin= 5.58D-06
 ErrMax= 5.58D-06  0.00D+00 EMaxC= 1.00D-01 BMatC= 1.46D-09 BMatP= 2.59D-08
 IDIUse=1 WtCom= 1.00D+00 WtEn= 0.00D+00
 Coeff-Com:  0.477D+00-0.188D+01 0.240D+01
 Coeff:      0.477D+00-0.188D+01 0.240D+01
 Gap=     0.724 Goal=   None    Shift=    0.000
 RMSDP=2.28D-05 MaxDP=7.31D-05 DE=-7.95D-08 OVMax= 7.45D-05

 Cycle   4  Pass 1  IDiag  3:
 E=-0.195852394209890E-01 Delta-E=       -0.000000009888 Rises=F Damp=F
 DIIS: error= 5.49D-07 at cycle   4 NSaved=   4.
 NSaved= 4 IEnMin= 4 EnMin=-0.195852394209890E-01 IErMin= 4 ErrMin= 5.49D-07
 ErrMax= 5.49D-07  0.00D+00 EMaxC= 1.00D-01 BMatC= 2.79D-12 BMatP= 1.46D-09
 IDIUse=1 WtCom= 1.00D+00 WtEn= 0.00D+00
 Coeff-Com: -0.399D+00 0.157D+01-0.201D+01 0.184D+01
 Coeff:     -0.399D+00 0.157D+01-0.201D+01 0.184D+01
 Gap=     0.724 Goal=   None    Shift=    0.000
 RMSDP=7.51D-07 MaxDP=1.80D-06 DE=-9.89D-09 OVMax= 2.20D-06

 Cycle   5  Pass 1  IDiag  3:
 E=-0.195852394351590E-01 Delta-E=       -0.000000000014 Rises=F Damp=F
 DIIS: error= 1.66D-09 at cycle   5 NSaved=   5.
 NSaved= 5 IEnMin= 5 EnMin=-0.195852394351590E-01 IErMin= 5 ErrMin= 1.66D-09
 ErrMax= 1.66D-09  0.00D+00 EMaxC= 1.00D-01 BMatC= 8.31D-17 BMatP= 2.79D-12
 IDIUse=1 WtCom= 1.00D+00 WtEn= 0.00D+00
 Coeff-Com:  0.196D+00-0.772D+00 0.988D+00-0.903D+00 0.149D+01
 Coeff:      0.196D+00-0.772D+00 0.988D+00-0.903D+00 0.149D+01
 Gap=     0.724 Goal=   None    Shift=    0.000
 RMSDP=2.54D-09 MaxDP=7.33D-09 DE=-1.42D-11 OVMax= 9.23D-09

 Cycle   6  Pass 2  IDiag  1:
 SCF Done:  E(RPM6) = -0.195852394352E-01 A.U. after    6 cycles
            NFock=  5  Conv=0.25D-08     -V/T= 0.9981
 KE=-1.035476154014D+01 PE=-1.374860372187D+01 EE= 9.617452258469D+00
 Leave Link  502 at Fri Sep  6 16:31:02 2024, MaxMem=   104857600 cpu:               0.0 elap:               0.0
 (Enter /Users/asuyarger/Applications/G16/g16/l701.exe)
 ... and contract with generalized density number  0.
 Compute integral first derivatives.
 Leave Link  701 at Fri Sep  6 16:31:02 2024, MaxMem=   104857600 cpu:               0.0 elap:               0.0
 (Enter /Users/asuyarger/Applications/G16/g16/l702.exe)
 L702 exits ... SP integral derivatives will be done elsewhere.
 Leave Link  702 at Fri Sep  6 16:31:02 2024, MaxMem=   104857600 cpu:               0.0 elap:               0.0
 (Enter /Users/asuyarger/Applications/G16/g16/l703.exe)
 Integral derivatives from FoFJK, PRISM(SPDF).
 Compute integral first derivatives, UseDBF=F ICtDFT=           0.
 Calling FoFJK, ICntrl=      2127 FMM=F ISym2X=1 I1Cent= 0 IOpClX= 0 NMat=1 NMatS=1 NMatT=0.
 FoFJK:  IHMeth=40 ICntrl=    2127 DoSepK=F KAlg= 0 I1Cent=           0 FoldK=F
 IRaf=         0 NMat=       1 IRICut=       1 DoRegI=T DoRafI=F ISym2E= 1 IDoP0=3 IntGTp=3.
 FoFCou: FMM=F IPFlag=           0 FMFlag=      100000 FMFlg1=         800
         NFxFlg=           0 DoJE=F BraDBF=F KetDBF=F FulRan=T
         wScrn=  0.000000 ICntrl=      2127 IOpCl=  0 I1Cent=           0 NGrid=           0
         NMat0=    1 NMatS0=      1 NMatT0=    0 NMatD0=    1 NMtDS0=    0 NMtDT0=    0
 Petite list used in FoFCou.
 Leave Link  703 at Fri Sep  6 16:31:02 2024, MaxMem=   104857600 cpu:               0.0 elap:               0.0
 (Enter /Users/asuyarger/Applications/G16/g16/l716.exe)
 Dipole        =-3.79318843D-09 2.57102406D-09 3.77051035D-09
 ***** Axes restored to original set *****
 -------------------------------------------------------------------
 Center     Atomic                   Forces (Hartrees/Bohr)
 Number     Number              X              Y              Z
 -------------------------------------------------------------------
      1        6          -0.000000001   -0.000000000   -0.000000000
      2        1          -0.000000015    0.000000044    0.000000000
      3        1          -0.000000016   -0.000000021   -0.000000037
      4        1          -0.000000015   -0.000000021    0.000000038
      5        1           0.000000047   -0.000000001   -0.000000001
 -------------------------------------------------------------------
 Cartesian Forces:  Max     0.000000047 RMS     0.000000024
 Leave Link  716 at Fri Sep  6 16:31:02 2024, MaxMem=   104857600 cpu:               0.0 elap:               0.0
 (Enter /Users/asuyarger/Applications/G16/g16/l103.exe)

 GradGradGradGradGradGradGradGradGradGradGradGradGradGradGradGradGradGrad
 Berny optimization.
 Using GEDIIS/GDIIS optimizer.
 FormGI is forming the generalized inverse of G from B-inverse, IUseBI=4.
 Internal  Forces:  Max     0.000000047 RMS     0.000000025
 Search for a local minimum.
 Step number   3 out of a maximum of   24
 All quantities printed in internal units (Hartrees-Bohrs-Radians)
 RMS Force = .24758D-07 SwitMx=.10000D-02 MixMth= 2
 Mixed Optimization -- En-DIIS/RFO-DIIS
 Swapping is turned off.
 Update second derivatives using D2CorX and points    1    2    3
 DE= -1.25D-05 DEPred=-1.23D-05 R= 1.02D+00
 TightC=F SS=  1.41D+00  RLast= 9.05D-03 DXNew= 5.0454D-01 2.7164D-02
 Trust test= 1.02D+00 RLast= 9.05D-03 DXMaxT set to 3.00D-01
 The second derivative matrix:
                          R1        R2        R3        R4        A1
           R1           0.35573
           R2          -0.01657   0.35573
           R3          -0.01657  -0.01657   0.35573
           R4          -0.01657  -0.01657  -0.01657   0.35573
           A1           0.00000   0.00000   0.00000   0.00000   0.16000
           A2          -0.00000  -0.00000  -0.00000  -0.00000  -0.00000
           A3           0.00000   0.00000   0.00000   0.00000   0.00000
           A4           0.00000   0.00000   0.00000   0.00000   0.00000
           A5          -0.00000  -0.00000  -0.00000  -0.00000  -0.00000
           A6           0.00000   0.00000   0.00000   0.00000   0.00000
           D1           0.00000   0.00000   0.00000   0.00000   0.00000
           D2           0.00000   0.00000   0.00000   0.00000   0.00000
           D3           0.00000   0.00000   0.00000   0.00000   0.00000
           D4           0.00000   0.00000   0.00000   0.00000   0.00000
                          A2        A3        A4        A5        A6
           A2           0.16000
           A3          -0.00000   0.16000
           A4          -0.00000   0.00000   0.16000
           A5           0.00000  -0.00000  -0.00000   0.16000
           A6          -0.00000   0.00000   0.00000  -0.00000   0.16000
           D1          -0.00000   0.00000   0.00000  -0.00000   0.00000
           D2          -0.00000   0.00000   0.00000  -0.00000   0.00000
           D3          -0.00000   0.00000   0.00000  -0.00000   0.00000
           D4          -0.00000   0.00000   0.00000  -0.00000   0.00000
                          D1        D2        D3        D4
           D1           0.00499
           D2           0.00000   0.00499
           D3           0.00000   0.00000   0.00499
           D4           0.00000   0.00000   0.00000   0.00499
 ITU=  1  1  0
     Eigenvalues ---    0.05269   0.05891   0.08766   0.16000   0.16000
     Eigenvalues ---    0.30601   0.37230   0.37230   0.37230
 En-DIIS/RFO-DIIS/Sim-DIIS IScMMF=       -3 using points:     3    2
 RFO step:  Lambda= 0.00000000D+00.
 NNeg= 0 NGDIIS= 2 SimSw=  2.50D-03 Rises=F DC= -1.25D-05 SmlDif=  1.00D-05
 NRisDI= 0 DoIntr=F SqrtH=F CThrHd= 10.0 CDAdj=  3.0
 RMS Error=  0.8090361508D-07 NUsed= 2 OKEnD=T EnDIS=F
 InvSVX:  RCond= 9.22D-05 Info=           0 Equed=N FErr=  8.92D-16 BErr=  7.55D-17
 DidBck=F Rises=F RFO-DIIS coefs:    0.99997    0.00003
 Iteration  1 RMS(Cart)=  0.00000008 RMS(Int)=  0.00000000
 ITry= 1 IFail=0 DXMaxC= 1.54D-07 DCOld= 1.00D+10 DXMaxT= 3.00D-01 DXLimC= 3.00D+00 Rises=F
 ClnCor:  largest displacement from symmetrization is 2.92D-09 for atom     5.
 Variable       Old X    -DE/DX   Delta X   Delta X   Delta X     New X
                                 (Linear)    (Quad)   (Total)
    R1        2.04938  -0.00000  -0.00000   0.00000  -0.00000   2.04938
    R2        2.04938  -0.00000  -0.00000   0.00000  -0.00000   2.04938
    R3        2.04938  -0.00000  -0.00000   0.00000  -0.00000   2.04938
    R4        2.04938  -0.00000  -0.00000  -0.00000  -0.00000   2.04938
    A1        1.91063  -0.00000   0.00000  -0.00000   0.00000   1.91063
    A2        1.91063   0.00000   0.00000   0.00000   0.00000   1.91063
    A3        1.91063  -0.00000   0.00000  -0.00000   0.00000   1.91063
    A4        1.91063  -0.00000   0.00000  -0.00000   0.00000   1.91063
    A5        1.91063   0.00000   0.00000   0.00000   0.00000   1.91063
    A6        1.91063  -0.00000   0.00000  -0.00000  -0.00000   1.91063
    D1       -2.09440  -0.00000   0.00000  -0.00000   0.00000  -2.09440
    D2        2.09440  -0.00000   0.00000  -0.00000   0.00000   2.09440
    D3       -2.09440  -0.00000   0.00000  -0.00000   0.00000  -2.09440
    D4        2.09440  -0.00000   0.00000  -0.00000   0.00000   2.09440
         Item               Value     Threshold  Converged?
 Maximum Force            0.000000     0.000015     YES
 RMS     Force            0.000000     0.000010     YES
 Maximum Displacement     0.000000     0.000060     YES
 RMS     Displacement     0.000000     0.000040     YES
 Predicted change in Energy=-1.401883D-14
 Optimization completed.
    -- Stationary point found.
                           ----------------------------
                           !   Optimized Parameters   !
                           ! (Angstroms and Degrees)  !
 --------------------------                            --------------------------
 ! Name  Definition              Value          Derivative Info.                !
 --------------------------------------------------------------------------------
 ! R1    R(1,2)                  1.0845         -DE/DX =    0.0                 !
 ! R2    R(1,3)                  1.0845         -DE/DX =    0.0                 !
 ! R3    R(1,4)                  1.0845         -DE/DX =    0.0                 !
 ! R4    R(1,5)                  1.0845         -DE/DX =    0.0                 !
 ! A1    A(2,1,3)              109.4712         -DE/DX =    0.0                 !
 ! A2    A(2,1,4)              109.4712         -DE/DX =    0.0                 !
 ! A3    A(2,1,5)              109.4712         -DE/DX =    0.0                 !
 ! A4    A(3,1,4)              109.4712         -DE/DX =    0.0                 !
 ! A5    A(3,1,5)              109.4712         -DE/DX =    0.0                 !
 ! A6    A(4,1,5)              109.4712         -DE/DX =    0.0                 !
 ! D1    D(2,1,4,3)           -120.0            -DE/DX =    0.0                 !
 ! D2    D(2,1,5,3)            120.0            -DE/DX =    0.0                 !
 ! D3    D(2,1,5,4)           -120.0            -DE/DX =    0.0                 !
 ! D4    D(3,1,5,4)            120.0            -DE/DX =    0.0                 !
 --------------------------------------------------------------------------------
 Lowest energy point so far.  Saving SCF results.
 Largest change from initial coordinates is atom    2       0.014 Angstoms.
 GradGradGradGradGradGradGradGradGradGradGradGradGradGradGradGradGradGrad

 Leave Link  103 at Fri Sep  6 16:31:02 2024, MaxMem=   104857600 cpu:               0.0 elap:               0.0
 (Enter /Users/asuyarger/Applications/G16/g16/l202.exe)
                          Input orientation:                          
 ---------------------------------------------------------------------
 Center     Atomic      Atomic             Coordinates (Angstroms)
 Number     Number       Type             X           Y           Z
 ---------------------------------------------------------------------
      1          6           0       -0.081374    0.280289    0.000000
      2          1           0        0.280108   -0.742176   -0.000000
      3          1           0        0.280127    0.791515    0.885477
      4          1           0        0.280127    0.791515   -0.885477
      5          1           0       -1.165858    0.280303    0.000000
 ---------------------------------------------------------------------
                    Distance matrix (angstroms):
                    1          2          3          4          5
     1  C    0.000000
     2  H    1.084484   0.000000
     3  H    1.084484   1.770954   0.000000
     4  H    1.084484   1.770954   1.770954   0.000000
     5  H    1.084484   1.770954   1.770954   1.770954   0.000000
 Stoichiometry    CH4
 Framework group  TD[O(C),4C3(H)]
 Deg. of freedom     1
 Full point group                 TD      NOp  24
 RotChk:  IX=0 Diff= 4.20D-15
 Largest Abelian subgroup         D2      NOp   4
 Largest concise Abelian subgroup D2      NOp   4
                         Standard orientation:                         
 ---------------------------------------------------------------------
 Center     Atomic      Atomic             Coordinates (Angstroms)
 Number     Number       Type             X           Y           Z
 ---------------------------------------------------------------------
      1          6           0        0.000000    0.000000    0.000000
      2          1           0        0.626127    0.626127    0.626127
      3          1           0       -0.626127   -0.626127    0.626127
      4          1           0       -0.626127    0.626127   -0.626127
      5          1           0        0.626127   -0.626127   -0.626127
 ---------------------------------------------------------------------
 Rotational constants (GHZ):         159.8885401         159.8885401         159.8885401
 Leave Link  202 at Fri Sep  6 16:31:02 2024, MaxMem=   104857600 cpu:               0.0 elap:               0.0
 (Enter /Users/asuyarger/Applications/G16/g16/l601.exe)
 Copying SCF densities to generalized density rwf, IOpCl= 0 IROHF=0.

 **********************************************************************

            Population analysis using the SCF density.

 **********************************************************************

 Orbital symmetries:
       Occupied  (A1) (T2) (T2) (T2)
       Virtual   (T2) (T2) (T2) (A1)
 The electronic state is 1-A1.
 Alpha  occ. eigenvalues --   -0.92646  -0.50259  -0.50259  -0.50259
 Alpha virt. eigenvalues --    0.22111   0.22111   0.22111   0.26662
     Molecular Orbital Coefficients:
                           1         2         3         4         5
                        (A1)--O   (T2)--O   (T2)--O   (T2)--O   (T2)--V
     Eigenvalues --    -0.92646  -0.50259  -0.50259  -0.50259   0.22111
   1 1   C  1S          0.73379   0.00000   0.00000   0.00000  -0.00000
   2        1PX        -0.00000   0.34432   0.54981   0.41896   0.23939
   3        1PY         0.00000   0.59272   0.00599  -0.49500   0.53745
   4        1PZ         0.00000  -0.35567   0.54226  -0.41932  -0.23973
   5 2   H  1S          0.33969   0.23914   0.45168  -0.20376  -0.32644
   6 3   H  1S          0.33969  -0.53174  -0.00557  -0.14120   0.61784
   7 4   H  1S          0.33969   0.24848  -0.44675  -0.20347  -0.32685
   8 5   H  1S          0.33969   0.04413   0.00064   0.54843   0.03545
                           6         7         8
                        (T2)--V   (T2)--V   (A1)--V
     Eigenvalues --     0.22111   0.22111   0.26662
   1 1   C  1S         -0.00000   0.00000   0.67938
   2        1PX         0.45073  -0.37837   0.00000
   3        1PY        -0.00105   0.33879  -0.00000
   4        1PZ         0.44774   0.38169  -0.00000
   5 2   H  1S         -0.54542  -0.20792  -0.36689
   6 3   H  1S          0.00118  -0.25604  -0.36689
   7 4   H  1S          0.54670  -0.20388  -0.36689
   8 5   H  1S         -0.00246   0.66784  -0.36689
     Density Matrix:
                           1         2         3         4         5
   1 1   C  1S          1.07689
   2        1PX        -0.00000   1.19274
   3        1PY         0.00000   0.00000   1.19274
   4        1PZ         0.00000   0.00000  -0.00000   1.19274
   5 2   H  1S          0.49852   0.49062   0.49062   0.49062   0.83622
   6 3   H  1S          0.49852  -0.49062  -0.49062   0.49062   0.02896
   7 4   H  1S          0.49852  -0.49062   0.49062  -0.49062   0.02896
   8 5   H  1S          0.49852   0.49062  -0.49062  -0.49062   0.02896
                           6         7         8
   6 3   H  1S          0.83622
   7 4   H  1S          0.02896   0.83622
   8 5   H  1S          0.02896   0.02896   0.83622
    Full Mulliken population analysis:
                           1         2         3         4         5
   1 1   C  1S          1.07689
   2        1PX         0.00000   1.19274
   3        1PY         0.00000   0.00000   1.19274
   4        1PZ         0.00000   0.00000   0.00000   1.19274
   5 2   H  1S          0.00000   0.00000   0.00000   0.00000   0.83622
   6 3   H  1S          0.00000   0.00000   0.00000   0.00000   0.00000
   7 4   H  1S          0.00000   0.00000   0.00000   0.00000   0.00000
   8 5   H  1S          0.00000   0.00000   0.00000   0.00000   0.00000
                           6         7         8
   6 3   H  1S          0.83622
   7 4   H  1S          0.00000   0.83622
   8 5   H  1S          0.00000   0.00000   0.83622
     Gross orbital populations:
                           1
   1 1   C  1S          1.07689
   2        1PX         1.19274
   3        1PY         1.19274
   4        1PZ         1.19274
   5 2   H  1S          0.83622
   6 3   H  1S          0.83622
   7 4   H  1S          0.83622
   8 5   H  1S          0.83622
          Condensed to atoms (all electrons):
               1          2          3          4          5
     1  C    4.655114   0.000000   0.000000   0.000000   0.000000
     2  H    0.000000   0.836221   0.000000   0.000000   0.000000
     3  H    0.000000   0.000000   0.836221   0.000000   0.000000
     4  H    0.000000   0.000000   0.000000   0.836221   0.000000
     5  H    0.000000   0.000000   0.000000   0.000000   0.836221
 Mulliken charges:
               1
     1  C   -0.655114
     2  H    0.163779
     3  H    0.163779
     4  H    0.163779
     5  H    0.163779
 Sum of Mulliken charges =   0.00000
 Mulliken charges with hydrogens summed into heavy atoms:
               1
     1  C    0.000000
 Charge=              0.0000 electrons
 Dipole moment (field-independent basis, Debye):
    X=             -0.0000    Y=              0.0000    Z=              0.0000  Tot=              0.0000
 N-N= 1.446632776411D+01 E-N=-1.374860373208D+01  KE=-1.035476154014D+01
 Symmetry A    KE=-3.284382259397D+00
 Symmetry B1   KE=-2.356793091656D+00
 Symmetry B2   KE=-2.356793097319D+00
 Symmetry B3   KE=-2.356793091772D+00
 StAtR1:  DoIntr=F IAtCor=3 NETot=       8 Failed=F Sum=  2.00D+00 SumC=  0.00D+00
 There are a total of      110938 grid points.
 ElSum from          density=       12.3495711347
 ElSum from atomic densities=       10.0000021909

 Hirshfeld populations at iteration   1 (CX, CA, CB, DipXYZ):
               1          2          3          4          5          6
     1  C    0.000000   3.239159   3.239159  -0.000000   0.000000   0.000000
     2  H    0.000003   0.733907   0.733907  -0.036411  -0.036411  -0.036411
     3  H    0.000003   0.733907   0.733907   0.036411   0.036411  -0.036411
     4  H    0.000003   0.733907   0.733907   0.036411  -0.036411   0.036411
     5  H    0.000003   0.733907   0.733907  -0.036411   0.036411   0.036411
       Tot   0.000012   6.174786   6.174786  -0.000000   0.000000   0.000000

 Dip from Atomic Chgs             -0.000000   0.000000   0.000000
         Total Dipole             -0.000000   0.000000   0.000000

 Hirshfeld charges, spin densities, dipoles, and CM5 charges using IRadAn=      5:
              Q-H        S-H        Dx         Dy         Dz        Q-CM5   
     1  C   -2.478318   0.000000  -0.000000   0.000000   0.000000  -2.672050
     2  H   -0.467813   0.000000  -0.036411  -0.036411  -0.036411  -0.419380
     3  H   -0.467813   0.000000   0.036411   0.036411  -0.036411  -0.419380
     4  H   -0.467813   0.000000   0.036411  -0.036411   0.036411  -0.419380
     5  H   -0.467813   0.000000  -0.036411   0.036411   0.036411  -0.419380
       Tot  -4.349571   0.000000  -0.000000   0.000000   0.000000  -4.349571
 Hirshfeld charges with hydrogens summed into heavy atoms:
              Q-H       Q-CM5   
     1  C   -4.349571  -4.349571
 
 EQQ= 0.000000000000E+00 EQD= 0.000000000000E+00 EDD=-0.212221430966E-03
 EQQ+QD+DD=-0.212221430966E-03
 
 Orbital energies and kinetic energies (alpha):
                                 1                 2
   1         (A1)--O          -0.926457         -1.642191
   2         (T2)--O          -0.502591         -1.178397
   3         (T2)--O          -0.502591         -1.178397
   4         (T2)--O          -0.502591         -1.178397
   5         (T2)--V           0.221106         -0.653121
   6         (T2)--V           0.221106         -0.653121
   7         (T2)--V           0.221106         -0.653121
   8         (A1)--V           0.266615         -0.797114
 Total kinetic energy from orbitals=-1.035476154014D+01
 Leave Link  601 at Fri Sep  6 16:31:02 2024, MaxMem=   104857600 cpu:               0.1 elap:               0.1
 (Enter /Users/asuyarger/Applications/G16/g16/l9999.exe)
 1\1\GINC-JEFFSMACSTUDIO\FOpt\RPM6\ZDO\C1H4\ROOT\06-Sep-2024\0\\#p opt=
 tight freq pm6 guess=save pop=(hirshfeld,full) geom=connectivity polar
 \\CH4 PM6 Opt Freq - Full - NBO\\0,1\C,-0.081374299,0.28028924,0.\H,0.
 2801076713,-0.7421761577,-0.0000000142\H,0.2801265343,0.7915152664,0.8
 854771605\H,0.2801265092,0.791515282,-0.8854771618\H,-1.1658579108,0.2
 803025693,0.0000000154\\Version=EM64M-G16RevA.03\State=1-A1\HF=-0.0195
 852\RMSD=2.543e-09\RMSF=2.392e-08\Dipole=0.,0.,0.\PG=TD [O(C1),4C3(H1)
 ]\\@


 CHRISTMAS IS ON TOP OF A STEEP HILL.
 THE CLOSER YOU GET, THE STEEPER THE HILL IS.
          -- LINUS, OF PEANUTS
 Leave Link 9999 at Fri Sep  6 16:31:02 2024, MaxMem=   104857600 cpu:               0.0 elap:               0.0
 Job cpu time:       0 days  0 hours  0 minutes  1.3 seconds.
 Elapsed time:       0 days  0 hours  0 minutes  1.0 seconds.
[...]
     8    7                                                                22                                                        
     2    2                                                                65                                                        
     8    2                                                                13                                                        
 
          X                                                                 X                                                        
          X                                                                 X                                                        
          X                                                                 X                                                        
          X                                                                 X                                                        
          X                                                                 X                                                        
          X                                                                 X                                                        
          X                                                                 X                                                        
          X                                                                 X                                                        
          X                                                                 X                                                        
          X                                                                 X                                                        
                                                                            X                                                        
                                                                            X                                                        
                                                                            X                                                        
                                                                            X                                                        
                                                                            X                                                        
                                                                            X                                                        
                                                                            X                                                        
                                                                            X                                                        
                                                                            X                                                        
                                                                            X                                                        
 
 ***** Axes restored to original set *****
 -------------------------------------------------------------------
 Center     Atomic                   Forces (Hartrees/Bohr)
 Number     Number              X              Y              Z
 -------------------------------------------------------------------
      1        6          -0.000000000   -0.000000000   -0.000000000
      2        1          -0.000000015    0.000000045    0.000000000
      3        1          -0.000000016   -0.000000022   -0.000000038
      4        1          -0.000000016   -0.000000022    0.000000039
      5        1           0.000000047   -0.000000000   -0.000000001
 -------------------------------------------------------------------
 Cartesian Forces:  Max     0.000000047 RMS     0.000000024
 Force constants in Cartesian coordinates: 
                1             2             3             4             5 
      1  0.398931D+00
      2  0.000000D+00  0.398931D+00
      3  0.000000D+00  0.000000D+00  0.398931D+00
      4 -0.570593D-01  0.603453D-01  0.000000D+00  0.604228D-01
      5  0.603453D-01 -0.206414D+00  0.000000D+00 -0.740204D-01  0.243623D+00
      6  0.000000D+00  0.000000D+00 -0.357248D-01  0.000000D+00  0.000000D+00
      7 -0.570615D-01 -0.301738D-01 -0.522631D-01  0.532539D-02  0.309818D-02
      8 -0.301738D-01 -0.783960D-01 -0.739092D-01 -0.509963D-02 -0.171396D-01
      9 -0.522631D-01 -0.739092D-01 -0.163740D+00 -0.633758D-03 -0.709360D-02
     10 -0.570615D-01 -0.301738D-01  0.522631D-01  0.532539D-02  0.309818D-02
     11 -0.301738D-01 -0.783960D-01  0.739092D-01 -0.509963D-02 -0.171396D-01
     12  0.522631D-01  0.739092D-01 -0.163740D+00  0.633758D-03  0.709360D-02
     13 -0.227748D+00  0.235993D-05  0.000000D+00 -0.140143D-01  0.747878D-02
     14  0.235993D-05 -0.357248D-01  0.000000D+00  0.238744D-01 -0.293019D-02
     15  0.000000D+00  0.000000D+00 -0.357248D-01  0.000000D+00  0.000000D+00
                6             7             8             9            10 
      6  0.342537D-01
      7  0.409908D-02  0.604256D-01
      8 -0.204806D-01  0.370117D-01  0.865947D-01
      9 -0.121971D-02  0.641066D-01  0.906581D-01  0.191280D+00
     10 -0.409908D-02  0.532547D-02  0.200092D-02 -0.473309D-02  0.604256D-01
     11  0.204806D-01  0.200092D-02  0.674022D-02 -0.669342D-02  0.370117D-01
     12 -0.121971D-02  0.473309D-02  0.669342D-02 -0.250996D-01 -0.641066D-01
     13  0.000000D+00 -0.140149D-01 -0.373912D-02 -0.647673D-02 -0.140149D-01
     14  0.000000D+00 -0.119369D-01  0.220067D-02 -0.296189D-02 -0.119369D-01
     15  0.391057D-02 -0.206757D-01 -0.296171D-02 -0.121971D-02  0.206757D-01
               11            12            13            14            15 
     11  0.865947D-01
     12 -0.906581D-01  0.191280D+00
     13 -0.373912D-02  0.647673D-02  0.269792D+00
     14  0.220067D-02  0.296189D-02 -0.289468D-05  0.342537D-01
     15  0.296171D-02 -0.121971D-02  0.000000D+00  0.000000D+00  0.342537D-01
 FormGI is forming the generalized inverse of G from B-inverse, IUseBI=4.
 Force constants in internal coordinates: 
                1             2             3             4             5 
      1  0.269792D+00
      2  0.117225D-01  0.269792D+00
      3  0.117225D-01  0.117225D-01  0.269792D+00
      4  0.117225D-01  0.117225D-01  0.117225D-01  0.269792D+00
      5  0.242233D-02  0.242233D-02 -0.152100D-02 -0.332367D-02  0.133246D-01
      6  0.379638D-02 -0.979710D-03  0.422500D-02 -0.704166D-02 -0.489877D-02
      7  0.741885D-02 -0.595419D-02 -0.659100D-02  0.512633D-02 -0.844871D-02
      8 -0.979710D-03  0.379638D-02  0.422500D-02 -0.704166D-02 -0.489877D-02
      9 -0.595419D-02  0.741885D-02 -0.659100D-02  0.512633D-02 -0.844871D-02
     10 -0.670367D-02 -0.670366D-02  0.625300D-02  0.715433D-02  0.133704D-01
     11 -0.469159D-02 -0.469159D-02 -0.331171D-02  0.126949D-01 -0.103195D-01
     12  0.386366D-02  0.386366D-02 -0.993513D-02  0.220781D-02  0.597171D-02
     13 -0.508755D-02  0.895121D-02 -0.496756D-02  0.110390D-02  0.298585D-02
     14 -0.895121D-02  0.508755D-02  0.496756D-02 -0.110390D-02 -0.298585D-02
                6             7             8             9            10 
      6  0.261509D-01
      7 -0.153009D-01  0.510439D-01
      8  0.418538D-03  0.131226D-01  0.261509D-01
      9  0.131226D-01 -0.230364D-01 -0.153009D-01  0.510439D-01
     10 -0.194924D-01 -0.173805D-01 -0.194924D-01 -0.173805D-01  0.603755D-01
     11 -0.102706D-01  0.116814D-01 -0.102706D-01  0.116814D-01  0.749794D-02
     12 -0.733362D-02  0.680348D-02 -0.733362D-02  0.680348D-02 -0.491143D-02
     13 -0.107217D-01 -0.187486D-02  0.338807D-02  0.867835D-02 -0.245571D-02
     14 -0.338807D-02 -0.867835D-02  0.107217D-01  0.187486D-02  0.245571D-02
               11            12            13            14 
     11  0.252176D-01
     12  0.166800D-02  0.156463D-01
     13  0.834000D-03  0.782317D-02  0.157833D-01
     14 -0.834000D-03 -0.782317D-02  0.796009D-02  0.157833D-01
 Leave Link  716 at Fri Sep  6 16:31:03 2024, MaxMem=   104857600 cpu:               0.0 elap:               0.0
 (Enter /Users/asuyarger/Applications/G16/g16/l103.exe)

 GradGradGradGradGradGradGradGradGradGradGradGradGradGradGradGradGradGrad
 Berny optimization.
 Red2BG is reusing G-inverse.
 Internal  Forces:  Max     0.000000047 RMS     0.000000025
 Search for a local minimum.
 Step number   1 out of a maximum of    2
 All quantities printed in internal units (Hartrees-Bohrs-Radians)
 Second derivative matrix not updated -- analytic derivatives used.
 The second derivative matrix:
                          R1        R2        R3        R4        A1
           R1           0.26979
           R2           0.01172   0.26979
           R3           0.01172   0.01172   0.26979
           R4           0.01172   0.01172   0.01172   0.26979
           A1           0.00242   0.00242  -0.00152  -0.00332   0.01332
           A2           0.00380  -0.00098   0.00422  -0.00704  -0.00490
           A3           0.00742  -0.00595  -0.00659   0.00513  -0.00845
           A4          -0.00098   0.00380   0.00422  -0.00704  -0.00490
           A5          -0.00595   0.00742  -0.00659   0.00513  -0.00845
           A6          -0.00670  -0.00670   0.00625   0.00715   0.01337
           D1          -0.00469  -0.00469  -0.00331   0.01269  -0.01032
           D2           0.00386   0.00386  -0.00994   0.00221   0.00597
           D3          -0.00509   0.00895  -0.00497   0.00110   0.00299
           D4          -0.00895   0.00509   0.00497  -0.00110  -0.00299
                          A2        A3        A4        A5        A6
           A2           0.02615
           A3          -0.01530   0.05104
           A4           0.00042   0.01312   0.02615
           A5           0.01312  -0.02304  -0.01530   0.05104
           A6          -0.01949  -0.01738  -0.01949  -0.01738   0.06038
           D1          -0.01027   0.01168  -0.01027   0.01168   0.00750
           D2          -0.00733   0.00680  -0.00733   0.00680  -0.00491
           D3          -0.01072  -0.00187   0.00339   0.00868  -0.00246
           D4          -0.00339  -0.00868   0.01072   0.00187   0.00246
                          D1        D2        D3        D4
           D1           0.02522
           D2           0.00167   0.01565
           D3           0.00083   0.00782   0.01578
           D4          -0.00083  -0.00782   0.00796   0.01578
 ITU=  0
     Eigenvalues ---    0.03063   0.03487   0.05438   0.08674   0.08747
     Eigenvalues ---    0.25998   0.26001   0.26064   0.30496
 Angle between quadratic step and forces=  90.00 degrees.
 Linear search not attempted -- first point.
 Iteration  1 RMS(Cart)=  0.00000008 RMS(Int)=  0.00000000
 ITry= 1 IFail=0 DXMaxC= 1.55D-07 DCOld= 1.00D+10 DXMaxT= 3.00D-01 DXLimC= 3.00D+00 Rises=F
 ClnCor:  largest displacement from symmetrization is 1.33D-09 for atom     3.
 Variable       Old X    -DE/DX   Delta X   Delta X   Delta X     New X
                                 (Linear)    (Quad)   (Total)
    R1        2.04938  -0.00000   0.00000  -0.00000  -0.00000   2.04938
    R2        2.04938  -0.00000   0.00000  -0.00000  -0.00000   2.04938
    R3        2.04938  -0.00000   0.00000  -0.00000  -0.00000   2.04938
    R4        2.04938  -0.00000   0.00000  -0.00000  -0.00000   2.04938
    A1        1.91063  -0.00000   0.00000  -0.00000  -0.00000   1.91063
    A2        1.91063   0.00000   0.00000   0.00000   0.00000   1.91063
    A3        1.91063  -0.00000   0.00000  -0.00000   0.00000   1.91063
    A4        1.91063  -0.00000   0.00000  -0.00000   0.00000   1.91063
    A5        1.91063   0.00000   0.00000   0.00000   0.00000   1.91063
    A6        1.91063  -0.00000   0.00000  -0.00000  -0.00000   1.91063
    D1       -2.09440   0.00000   0.00000   0.00000   0.00000  -2.09440
    D2        2.09440  -0.00000   0.00000  -0.00000  -0.00000   2.09440
    D3       -2.09440  -0.00000   0.00000  -0.00000   0.00000  -2.09440
    D4        2.09440  -0.00000   0.00000  -0.00000   0.00000   2.09440
         Item               Value     Threshold  Converged?
 Maximum Force            0.000000     0.000015     YES
 RMS     Force            0.000000     0.000010     YES
 Maximum Displacement     0.000000     0.000060     YES
 RMS     Displacement     0.000000     0.000040     YES
 Predicted change in Energy=-1.465653D-14
 Optimization completed.
    -- Stationary point found.
                           ----------------------------
                           !   Optimized Parameters   !
                           ! (Angstroms and Degrees)  !
 --------------------------                            --------------------------
 ! Name  Definition              Value          Derivative Info.                !
 --------------------------------------------------------------------------------
 ! R1    R(1,2)                  1.0845         -DE/DX =    0.0                 !
 ! R2    R(1,3)                  1.0845         -DE/DX =    0.0                 !
 ! R3    R(1,4)                  1.0845         -DE/DX =    0.0                 !
 ! R4    R(1,5)                  1.0845         -DE/DX =    0.0                 !
 ! A1    A(2,1,3)              109.4712         -DE/DX =    0.0                 !
 ! A2    A(2,1,4)              109.4712         -DE/DX =    0.0                 !
 ! A3    A(2,1,5)              109.4712         -DE/DX =    0.0                 !
 ! A4    A(3,1,4)              109.4712         -DE/DX =    0.0                 !
 ! A5    A(3,1,5)              109.4712         -DE/DX =    0.0                 !
 ! A6    A(4,1,5)              109.4712         -DE/DX =    0.0                 !
 ! D1    D(2,1,4,3)           -120.0            -DE/DX =    0.0                 !
 ! D2    D(2,1,5,3)            120.0            -DE/DX =    0.0                 !
 ! D3    D(2,1,5,4)           -120.0            -DE/DX =    0.0                 !
 ! D4    D(3,1,5,4)            120.0            -DE/DX =    0.0                 !
 --------------------------------------------------------------------------------
 GradGradGradGradGradGradGradGradGradGradGradGradGradGradGradGradGradGrad

 Leave Link  103 at Fri Sep  6 16:31:03 2024, MaxMem=   104857600 cpu:               0.0 elap:               0.0
 (Enter /Users/asuyarger/Applications/G16/g16/l9999.exe)
 Dipole is zero, so no output in dipole orientation.

 ----------------------------------------------------------------------

 Electric dipole moment (input orientation):
 (Debye = 10**-18 statcoulomb cm , SI units = C m)
                  (au)            (Debye)         (10**-30 SI)
   Tot        0.000000D+00      0.000000D+00      0.000000D+00
   x          0.000000D+00      0.000000D+00      0.000000D+00
   y          0.000000D+00      0.000000D+00      0.000000D+00
   z          0.000000D+00      0.000000D+00      0.000000D+00

 Dipole polarizability, Alpha (input orientation).
 (esu units = cm**3 , SI units = C**2 m**2 J**-1)
 Alpha(0;0):
               (au)            (10**-24 esu)      (10**-40 SI)
   iso        0.651916D+01      0.966040D+00      0.107486D+01
   aniso      0.000000D+00      0.000000D+00      0.000000D+00
   xx         0.651916D+01      0.966040D+00      0.107486D+01
   yx         0.000000D+00      0.000000D+00      0.000000D+00
   yy         0.651916D+01      0.966040D+00      0.107486D+01
   zx         0.000000D+00      0.000000D+00      0.000000D+00
   zy         0.000000D+00      0.000000D+00      0.000000D+00
   zz         0.651916D+01      0.966040D+00      0.107486D+01

 First dipole hyperpolarizability, Beta (input orientation).
 ||, _|_  parallel and perpendicular components, (z) with respect to z axis,
 vector components x,y,z.  Values do not include the 1/n! factor of 1/2.
 (esu units = statvolt**-1 cm**4 , SI units = C**3 m**3 J**-2)
 Beta(0;0,0):
               (au)            (10**-30 esu)      (10**-50 SI)
   || (z)     0.000000D+00      0.000000D+00      0.000000D+00
   _|_(z)     0.000000D+00      0.000000D+00      0.000000D+00
   x          0.000000D+00      0.000000D+00      0.000000D+00
   y          0.000000D+00      0.000000D+00      0.000000D+00
   z          0.000000D+00      0.000000D+00      0.000000D+00
   ||         0.000000D+00      0.000000D+00      0.000000D+00
   xxx       -0.677459D+01     -0.585272D-01     -0.217218D-01
   xxy        0.166545D-03      0.143882D-05      0.534004D-06
   yxy        0.338724D+01      0.292631D-01      0.108607D-01
   yyy       -0.479048D+01     -0.413861D-01     -0.153600D-01
   xxz        0.000000D+00      0.000000D+00      0.000000D+00
   yxz        0.000000D+00      0.000000D+00      0.000000D+00
   yyz        0.000000D+00      0.000000D+00      0.000000D+00
   zxz        0.338735D+01      0.292641D-01      0.108611D-01
   zyz        0.479032D+01      0.413846D-01      0.153595D-01
   zzz        0.000000D+00      0.000000D+00      0.000000D+00

 ----------------------------------------------------------------------
 1\1\GINC-JEFFSMACSTUDIO\Freq\RPM6\ZDO\C1H4\ROOT\06-Sep-2024\0\\#P Geom
 =AllCheck Guess=TCheck SCRF=Check GenChk RPM6/ZDO Freq\\CH4 PM6 Opt Fr
 eq - Full - NBO\\0,1\C,-0.081374299,0.28028924,0.\H,0.2801076713,-0.74
 21761577,-0.0000000142\H,0.2801265343,0.7915152664,0.8854771605\H,0.28
 01265092,0.791515282,-0.8854771618\H,-1.1658579108,0.2803025693,0.0000
 000154\\Version=EM64M-G16RevA.03\State=1-A1\HF=-0.0195852\RMSD=6.942e-
 10\RMSF=2.441e-08\ZeroPoint=0.0393578\Thermal=0.0422572\Dipole=0.,0.,0
 .\DipoleDeriv=-0.8496254,0.,0.,0.,-0.8496254,0.,0.,0.,-0.8496254,0.212
 8461,0.0006219,0.,0.0006219,0.211307,0.,0.,0.,0.213066,0.2128461,-0.00
 03109,-0.0005386,-0.0003109,0.2126262,-0.0007616,-0.0005386,-0.0007616
 ,0.2117468,0.2128461,-0.0003109,0.0005386,-0.0003109,0.2126262,0.00076
 16,0.0005386,0.0007616,0.2117468,0.2110872,0.,0.,0.,0.213066,0.,0.,0.,
 0.213066\Polar=6.5191625,0.,6.5191625,0.,0.,6.5191625\HyperPolar=-6.77
 45911,0.0001665,3.3872367,-4.7904842,0.0000002,0.,-0.0000002,3.3873544
 ,4.7903177,0.\PG=TD [O(C1),4C3(H1)]\NImag=0\\0.39893059,0.,0.39893059,
 0.,0.,0.39893059,-0.05705929,0.06034531,0.,0.06042285,0.06034531,-0.20
 641383,0.,-0.07402044,0.24362330,0.,0.,-0.03572483,0.,0.,0.03425369,-0
 .05706152,-0.03017384,-0.05226307,0.00532539,0.00309818,0.00409908,0.0
 6042558,-0.03017384,-0.07839597,-0.07390922,-0.00509963,-0.01713964,-0
 .02048062,0.03701167,0.08659473,-0.05226307,-0.07390922,-0.16374047,-0
 .00063376,-0.00709360,-0.00121971,0.06410665,0.09065812,0.19127953,-0.
 05706151,-0.03017384,0.05226307,0.00532539,0.00309818,-0.00409908,0.00
 532547,0.00200092,-0.00473309,0.06042557,-0.03017384,-0.07839597,0.073
 90922,-0.00509963,-0.01713964,0.02048062,0.00200092,0.00674022,-0.0066
 9342,0.03701167,0.08659473,0.05226307,0.07390922,-0.16374047,0.0006337
 6,0.00709360,-0.00121971,0.00473309,0.00669342,-0.02509965,-0.06410664
 ,-0.09065813,0.19127953,-0.22774828,0.00000236,0.,-0.01401434,0.007478
 78,0.,-0.01401492,-0.00373912,-0.00647673,-0.01401492,-0.00373912,0.00
 647673,0.26979245,0.00000236,-0.03572483,0.,0.02387439,-0.00293019,0.,
 -0.01193693,0.00220067,-0.00296189,-0.01193693,0.00220067,0.00296189,-
 0.00000289,0.03425369,0.,0.,-0.03572483,0.,0.,0.00391057,-0.02067575,-
 0.00296171,-0.00121971,0.02067575,0.00296171,-0.00121971,0.,0.,0.03425
 369\\0.,0.,0.,0.00000002,-0.00000004,0.,0.00000002,0.00000002,0.000000
 04,0.00000002,0.00000002,-0.00000004,-0.00000005,0.,0.\\\@


 ... THIS SEEMS PLAINLY ABSURD; BUT WHOEVER WISHES TO BECOME A 
 PHILOSOPHER MUST LEARN NOT TO BE FRIGHTENED BY ABSURDITIES.

                          -- BERTRAND RUSSELL
 Job cpu time:       0 days  0 hours  0 minutes  0.7 seconds.
 Elapsed time:       0 days  0 hours  0 minutes  0.5 seconds.
 File lengths (MBytes):  RWF=      6 Int=      0 D2E=      0 Chk=      2 Scr=      1
 Normal termination of Gaussian 16 at Fri Sep  6 16:31:03 2024.
