 Entering Gaussian System, Link 0=g16
 Input=/Users/asuyarger/Downloads/CO2_DFT_B3LPY_apVTZ_Opt_Freq_Full_NBO.gjf
 Output=/Users/asuyarger/Downloads/CO2_DFT_B3LPY_apVTZ_Opt_Freq_Full_NBO.log
 Initial command:
 /Users/asuyarger/Applications/G16/g16/l1.exe "/Users/asuyarger/Applications/G16/scratch/Gau-88675.inp" -scrdir="/Users/asuyarger/Applications/G16/scratch/"
 Entering Link 1 = /Users/asuyarger/Applications/G16/g16/l1.exe PID=     88676.
  
 Copyright (c) 1988,1990,1992,1993,1995,1998,2003,2009,2016,
            Gaussian, Inc.  All Rights Reserved.
  
 This is part of the Gaussian(R) 16 program.  It is based on
 the Gaussian(R) 09 system (copyright 2009, Gaussian, Inc.),
 the Gaussian(R) 03 system (copyright 2003, Gaussian, Inc.),
 the Gaussian(R) 98 system (copyright 1998, Gaussian, Inc.),
 the Gaussian(R) 94 system (copyright 1995, Gaussian, Inc.),
 the Gaussian 92(TM) system (copyright 1992, Gaussian, Inc.),
 the Gaussian 90(TM) system (copyright 1990, Gaussian, Inc.),
 the Gaussian 88(TM) system (copyright 1988, Gaussian, Inc.),
 the Gaussian 86(TM) system (copyright 1986, Carnegie Mellon
 University), and the Gaussian 82(TM) system (copyright 1983,
 Carnegie Mellon University). Gaussian is a federally registered
 trademark of Gaussian, Inc.
  
 This software contains proprietary and confidential information,
 including trade secrets, belonging to Gaussian, Inc.
  
 This software is provided under written license and may be
 used, copied, transmitted, or stored only in accord with that
 written license.
  
 The following legend is applicable only to US Government
 contracts under FAR:
  
                    RESTRICTED RIGHTS LEGEND
  
 Use, reproduction and disclosure by the US Government is
 subject to restrictions as set forth in subparagraphs (a)
 and (c) of the Commercial Computer Software - Restricted
 Rights clause in FAR 52.227-19.
  
 Gaussian, Inc.
 340 Quinnipiac St., Bldg. 40, Wallingford CT 06492
  
  
 ---------------------------------------------------------------
 Warning -- This program may not be used in any manner that
 competes with the business of Gaussian, Inc. or will provide
 assistance to any competitor of Gaussian, Inc.  The licensee
 of this program is prohibited from giving any competitor of
 Gaussian, Inc. access to this program.  By using this program,
 the user acknowledges that Gaussian, Inc. is engaged in the
 business of creating and licensing software in the field of
 computational chemistry and represents and warrants to the
 licensee that it is not a competitor of Gaussian, Inc. and that
 it will not use this program in any manner prohibited above.
 ---------------------------------------------------------------
  

 Cite this work as:
 Gaussian 16, Revision A.03,
 M. J. Frisch, G. W. Trucks, H. B. Schlegel, G. E. Scuseria, 
 M. A. Robb, J. R. Cheeseman, G. Scalmani, V. Barone, 
 G. A. Petersson, H. Nakatsuji, X. Li, M. Caricato, A. V. Marenich, 
 J. Bloino, B. G. Janesko, R. Gomperts, B. Mennucci, H. P. Hratchian, 
 J. V. Ortiz, A. F. Izmaylov, J. L. Sonnenberg, D. Williams-Young, 
 F. Ding, F. Lipparini, F. Egidi, J. Goings, B. Peng, A. Petrone, 
 T. Henderson, D. Ranasinghe, V. G. Zakrzewski, J. Gao, N. Rega, 
 G. Zheng, W. Liang, M. Hada, M. Ehara, K. Toyota, R. Fukuda, 
 J. Hasegawa, M. Ishida, T. Nakajima, Y. Honda, O. Kitao, H. Nakai, 
 T. Vreven, K. Throssell, J. A. Montgomery, Jr., J. E. Peralta, 
 F. Ogliaro, M. J. Bearpark, J. J. Heyd, E. N. Brothers, K. N. Kudin, 
 V. N. Staroverov, T. A. Keith, R. Kobayashi, J. Normand, 
 K. Raghavachari, A. P. Rendell, J. C. Burant, S. S. Iyengar, 
 J. Tomasi, M. Cossi, J. M. Millam, M. Klene, C. Adamo, R. Cammi, 
 J. W. Ochterski, R. L. Martin, K. Morokuma, O. Farkas, 
 J. B. Foresman, and D. J. Fox, Gaussian, Inc., Wallingford CT, 2016.
 
 ******************************************
 Gaussian 16:  EM64M-G16RevA.03 25-Dec-2016
                 6-Sep-2024 
 ******************************************
 %nprocshared=8
 Will use up to    8 processors via shared memory.
 %mem=8GB
 %chk=CO2_DFT_B3LPY_apVTZ_Opt_Freq_Full_NBO.chk
 ----------------------------------------------------------------------
 #p opt=tight freq=raman b3lyp/aug-cc-pvtz guess=save pop=(hirshfeld,fu
 ll,nbo) geom=connectivity polar
 ----------------------------------------------------------------------
 1/7=10,18=20,19=15,26=3,38=1,57=2/1,3;
 2/9=110,12=2,17=6,18=5,40=1/2;
 3/5=16,6=1,7=10,11=2,25=1,30=1,71=1,74=-5/1,2,3;
 4//1;
 5/5=2,38=5,98=1/2;
 6/7=3,28=1,40=1,79=1/1,7;
 7//1,2,3,16;
 1/7=10,18=20,19=15,26=3/3(2);
 2/9=110/2;
 99//99;
 2/9=110/2;
 3/5=16,6=1,7=10,11=2,25=1,30=1,71=1,74=-5/1,2,3;
 4/5=5,16=3,69=1/1;
 5/5=2,38=5,98=1/2;
 7//1,2,3,16;
 1/7=10,18=20,19=15,26=3/3(-5);
 2/9=110/2;
 6/7=3,19=2,28=1,40=1,79=1/1,7;
 99/9=1/99;
 Leave Link    1 at Fri Sep  6 10:19:09 2024, MaxMem=  1073741824 cpu:               0.2 elap:               0.0
 (Enter /Users/asuyarger/Applications/G16/g16/l101.exe)
 -----------------------------------------
 CO2 DFT aug-cc-pVTZ Opt Freq - Full - NBO
 -----------------------------------------
 Symbolic Z-matrix:
 Charge =  0 Multiplicity = 1
 C                     2.92043   0.67812   0. 
 O                     4.17883   0.67812   0. 
 O                     1.66203   0.67812   0. 
 
 ITRead=  0  0  0
 MicOpt= -1 -1 -1
 NAtoms=      3 NQM=        3 NQMF=       0 NMMI=      0 NMMIF=      0
                NMic=       0 NMicF=      0.
                    Isotopes and Nuclear Properties:
 (Nuclear quadrupole moments (NQMom) in fm**2, nuclear magnetic moments (NMagM)
  in nuclear magnetons)

  Atom         1           2           3
 IAtWgt=          12          16          16
 AtmWgt=  12.0000000  15.9949146  15.9949146
 NucSpn=           0           0           0
 AtZEff=  -0.0000000  -0.0000000  -0.0000000
 NQMom=    0.0000000   0.0000000   0.0000000
 NMagM=    0.0000000   0.0000000   0.0000000
 AtZNuc=   6.0000000   8.0000000   8.0000000
 Leave Link  101 at Fri Sep  6 10:19:09 2024, MaxMem=  1073741824 cpu:               1.2 elap:               0.2
 (Enter /Users/asuyarger/Applications/G16/g16/l103.exe)

 GradGradGradGradGradGradGradGradGradGradGradGradGradGradGradGradGradGrad
 Berny optimization.
 Initialization pass.
                           ----------------------------
                           !    Initial Parameters    !
                           ! (Angstroms and Degrees)  !
 --------------------------                            --------------------------
 ! Name  Definition              Value          Derivative Info.                !
 --------------------------------------------------------------------------------
 ! R1    R(1,2)                  1.2584         estimate D2E/DX2                !
 ! R2    R(1,3)                  1.2584         estimate D2E/DX2                !
 ! A1    L(2,1,3,-2,-1)        180.0            estimate D2E/DX2                !
 ! A2    L(2,1,3,-3,-2)        180.0            estimate D2E/DX2                !
 --------------------------------------------------------------------------------
 Trust Radius=3.00D-01 FncErr=1.00D-07 GrdErr=1.00D-06 EigMax=2.50D+02 EigMin=1.00D-04
 Number of steps in this run=     20 maximum allowed number of steps=    100.
 GradGradGradGradGradGradGradGradGradGradGradGradGradGradGradGradGradGrad

 Leave Link  103 at Fri Sep  6 10:19:09 2024, MaxMem=  1073741824 cpu:               0.1 elap:               0.0
 (Enter /Users/asuyarger/Applications/G16/g16/l202.exe)
                          Input orientation:                          
 ---------------------------------------------------------------------
 Center     Atomic      Atomic             Coordinates (Angstroms)
 Number     Number       Type             X           Y           Z
 ---------------------------------------------------------------------
      1          6           0        2.920434    0.678119    0.000000
      2          8           0        4.178834    0.678119    0.000000
      3          8           0        1.662034    0.678119    0.000000
 ---------------------------------------------------------------------
                    Distance matrix (angstroms):
                    1          2          3
     1  C    0.000000
     2  O    1.258400   0.000000
     3  O    1.258400   2.516800   0.000000
 Stoichiometry    CO2
 Framework group  D*H[O(C),C*(O.O)]
 Deg. of freedom     1
 Full point group                 D*H     NOp   8
 Largest Abelian subgroup         D2H     NOp   8
 Largest concise Abelian subgroup C2      NOp   2
                         Standard orientation:                         
 ---------------------------------------------------------------------
 Center     Atomic      Atomic             Coordinates (Angstroms)
 Number     Number       Type             X           Y           Z
 ---------------------------------------------------------------------
      1          6           0        0.000000    0.000000    0.000000
      2          8           0        0.000000    0.000000    1.258400
      3          8           0        0.000000    0.000000   -1.258400
 ---------------------------------------------------------------------
 Rotational constants (GHZ):           0.0000000           9.9762623           9.9762623
 Leave Link  202 at Fri Sep  6 10:19:09 2024, MaxMem=  1073741824 cpu:               0.0 elap:               0.0
 (Enter /Users/asuyarger/Applications/G16/g16/l301.exe)
 Standard basis: Aug-CC-pVTZ (5D, 7F)
 Ernie: Thresh=  0.10000D-02 Tol=  0.10000D-05 Strict=F.
 Ernie:  9 primitive shells out of 90 were deleted.
 There are    38 symmetry adapted cartesian basis functions of AG  symmetry.
 There are     8 symmetry adapted cartesian basis functions of B1G symmetry.
 There are    16 symmetry adapted cartesian basis functions of B2G symmetry.
 There are    16 symmetry adapted cartesian basis functions of B3G symmetry.
 There are     7 symmetry adapted cartesian basis functions of AU  symmetry.
 There are    34 symmetry adapted cartesian basis functions of B1U symmetry.
 There are    23 symmetry adapted cartesian basis functions of B2U symmetry.
 There are    23 symmetry adapted cartesian basis functions of B3U symmetry.
 There are    30 symmetry adapted basis functions of AG  symmetry.
 There are     8 symmetry adapted basis functions of B1G symmetry.
 There are    14 symmetry adapted basis functions of B2G symmetry.
 There are    14 symmetry adapted basis functions of B3G symmetry.
 There are     7 symmetry adapted basis functions of AU  symmetry.
 There are    27 symmetry adapted basis functions of B1U symmetry.
 There are    19 symmetry adapted basis functions of B2U symmetry.
 There are    19 symmetry adapted basis functions of B3U symmetry.
   138 basis functions,   216 primitive gaussians,   165 cartesian basis functions
    11 alpha electrons       11 beta electrons
       nuclear repulsion energy        53.8260354401 Hartrees.
 IExCor=  402 DFT=T Ex+Corr=B3LYP ExCW=0 ScaHFX=  0.200000
 ScaDFX=  0.800000  0.720000  1.000000  0.810000 ScalE2=  1.000000  1.000000
 IRadAn=      5 IRanWt=     -1 IRanGd=            0 ICorTp=0 IEmpDi=  4
 NAtoms=    3 NActive=    3 NUniq=    2 SFac= 2.25D+00 NAtFMM=   60 NAOKFM=F Big=F
 Integral buffers will be    131072 words long.
 Raffenetti 2 integral format.
 Two-electron integral symmetry is turned on.
 Leave Link  301 at Fri Sep  6 10:19:09 2024, MaxMem=  1073741824 cpu:               0.1 elap:               0.0
 (Enter /Users/asuyarger/Applications/G16/g16/l302.exe)
 NPDir=0 NMtPBC=     1 NCelOv=     1 NCel=       1 NClECP=     1 NCelD=      1
         NCelK=      1 NCelE2=     1 NClLst=     1 CellRange=     0.0.
 One-electron integrals computed using PRISM.
 One-electron integral symmetry used in STVInt
 NBasis=   138 RedAO= T EigKep=  4.29D-04  NBF=    30     8    14    14     7    27    19    19
 NBsUse=   138 1.00D-06 EigRej= -1.00D+00 NBFU=    30     8    14    14     7    27    19    19
 Precomputing XC quadrature grid using
 IXCGrd= 4 IRadAn=           5 IRanWt=          -1 IRanGd=           0 AccXCQ= 0.00D+00.
 Generated NRdTot=       0 NPtTot=           0 NUsed=           0 NTot=          32
 NSgBfM=   165   165   165   165   165 MxSgAt=     3 MxSgA2=     3.
 Leave Link  302 at Fri Sep  6 10:19:09 2024, MaxMem=  1073741824 cpu:               0.8 elap:               0.1
 (Enter /Users/asuyarger/Applications/G16/g16/l303.exe)
 DipDrv:  MaxL=1.
 Leave Link  303 at Fri Sep  6 10:19:09 2024, MaxMem=  1073741824 cpu:               0.1 elap:               0.0
 (Enter /Users/asuyarger/Applications/G16/g16/l401.exe)
 ExpMin= 3.57D-02 ExpMax= 1.53D+04 ExpMxC= 5.22D+02 IAcc=3 IRadAn=         5 AccDes= 0.00D+00
 Harris functional with IExCor=  402 and IRadAn=       5 diagonalized for initial guess.
 HarFok:  IExCor=  402 AccDes= 0.00D+00 IRadAn=         5 IDoV= 1 UseB2=F ITyADJ=14
 ICtDFT=  3500011 ScaDFX=  1.000000  1.000000  1.000000  1.000000
 FoFCou: FMM=F IPFlag=           0 FMFlag=      100000 FMFlg1=           0
         NFxFlg=           0 DoJE=T BraDBF=F KetDBF=T FulRan=T
         wScrn=  0.000000 ICntrl=       500 IOpCl=  0 I1Cent=   200000004 NGrid=           0
         NMat0=    1 NMatS0=      1 NMatT0=    0 NMatD0=    1 NMtDS0=    0 NMtDT0=    0
 Petite list used in FoFCou.
 Harris En= -188.647536530890    
 JPrj=0 DoOrth=F DoCkMO=F.
 Initial guess orbital symmetries:
       Occupied  (SGU) (SGG) (SGG) (SGG) (SGU) (SGG) (SGU) (PIU)
                 (PIU) (PIG) (PIG)
       Virtual   (PIU) (PIU) (SGG) (SGU) (PIU) (PIU) (SGG) (SGG)
                 (PIG) (PIG) (SGU) (PIU) (PIU) (DLTG) (DLTG) (SGU)
                 (SGG) (PIU) (PIU) (PIG) (PIG) (SGG) (SGU) (DLTU)
                 (DLTU) (SGG) (SGU) (PIG) (PIG) (DLTG) (DLTG) (PIU)
                 (PIU) (SGG) (SGU) (DLTG) (DLTG) (SGU) (PHIU) (PHIU)
                 (PIU) (PIU) (PIG) (PIG) (DLTU) (DLTU) (SGU) (PIG)
                 (PIG) (SGG) (PIU) (PIU) (SGG) (PHIG) (PHIG) (DLTU)
                 (DLTU) (DLTG) (DLTG) (PIU) (PIU) (PHIU) (PHIU)
                 (SGG) (SGG) (PIG) (PIG) (SGU) (DLTG) (DLTG) (SGU)
                 (PIU) (PIU) (DLTU) (DLTU) (SGU) (PIG) (PIG) (PIU)
                 (PIU) (DLTG) (DLTG) (SGG) (PHIU) (PHIU) (SGU)
                 (PIG) (PIG) (DLTU) (DLTU) (PIU) (PIU) (SGG) (PIG)
                 (PIG) (SGU) (SGG) (PIU) (PIU) (SGU) (PHIG) (PHIG)
                 (PHIU) (PHIU) (DLTG) (DLTG) (DLTU) (DLTU) (PIG)
                 (PIG) (DLTG) (DLTG) (DLTU) (DLTU) (SGU) (PIU)
                 (PIU) (SGG) (SGG) (PIG) (PIG) (SGU) (PIU) (PIU)
                 (SGG) (SGG) (SGU)
 The electronic state of the initial guess is 1-SGG.
 Leave Link  401 at Fri Sep  6 10:19:10 2024, MaxMem=  1073741824 cpu:               1.0 elap:               0.2
 (Enter /Users/asuyarger/Applications/G16/g16/l502.exe)
 Keep R1 ints in memory in symmetry-blocked form, NReq=53962024.
 FoFCou: FMM=F IPFlag=           0 FMFlag=           0 FMFlg1=           0
         NFxFlg=           0 DoJE=F BraDBF=F KetDBF=F FulRan=T
         wScrn=  0.000000 ICntrl=       600 IOpCl=  0 I1Cent=           0 NGrid=           0
         NMat0=    1 NMatS0=   9591 NMatT0=    0 NMatD0=    1 NMtDS0=    0 NMtDT0=    0
 Petite list used in FoFCou.
 Closed shell SCF:
 Using DIIS extrapolation, IDIIS=  1040.
 NGot=  1073741824 LenX=  1067782838 LenY=  1067755172
 Requested convergence on RMS density matrix=1.00D-08 within 128 cycles.
 Requested convergence on MAX density matrix=1.00D-06.
 Requested convergence on             energy=1.00D-06.
 No special actions if energy rises.

 Cycle   1  Pass 1  IDiag  1:
 E= -188.540272065177    
 DIIS: error= 5.31D-02 at cycle   1 NSaved=   1.
 NSaved= 1 IEnMin= 1 EnMin= -188.540272065177     IErMin= 1 ErrMin= 5.31D-02
 ErrMax= 5.31D-02  0.00D+00 EMaxC= 1.00D-01 BMatC= 1.38D-01 BMatP= 1.38D-01
 IDIUse=3 WtCom= 4.69D-01 WtEn= 5.31D-01
 Coeff-Com:  0.100D+01
 Coeff-En:   0.100D+01
 Coeff:      0.100D+01
 Gap=     0.227 Goal=   None    Shift=    0.000
 GapD=    0.227 DampG=1.000 DampE=0.500 DampFc=0.5000 IDamp=-1.
 Damping current iteration by 5.00D-01
 RMSDP=2.90D-03 MaxDP=9.23D-02              OVMax= 2.83D-01

 Cycle   2  Pass 1  IDiag  1:
 E= -188.522486568865     Delta-E=        0.017785496312 Rises=F Damp=T
 DIIS: error= 3.18D-02 at cycle   2 NSaved=   2.
 NSaved= 2 IEnMin= 1 EnMin= -188.540272065177     IErMin= 2 ErrMin= 3.18D-02
 ErrMax= 3.18D-02  0.00D+00 EMaxC= 1.00D-01 BMatC= 5.19D-02 BMatP= 1.38D-01
 IDIUse=3 WtCom= 6.82D-01 WtEn= 3.18D-01
 Coeff-Com:  0.373D+00 0.627D+00
 Coeff-En:   0.554D+00 0.446D+00
 Coeff:      0.431D+00 0.569D+00
 Gap=     0.323 Goal=   None    Shift=    0.000
 RMSDP=5.20D-04 MaxDP=1.46D-02 DE= 1.78D-02 OVMax= 1.90D-01

 Cycle   3  Pass 1  IDiag  1:
 E= -188.630021480082     Delta-E=       -0.107534911217 Rises=F Damp=F
 DIIS: error= 8.54D-03 at cycle   3 NSaved=   3.
 NSaved= 3 IEnMin= 3 EnMin= -188.630021480082     IErMin= 3 ErrMin= 8.54D-03
 ErrMax= 8.54D-03  0.00D+00 EMaxC= 1.00D-01 BMatC= 3.53D-03 BMatP= 5.19D-02
 IDIUse=3 WtCom= 9.15D-01 WtEn= 8.54D-02
 Coeff-Com:  0.128D+00-0.134D-01 0.885D+00
 Coeff-En:   0.000D+00 0.000D+00 0.100D+01
 Coeff:      0.117D+00-0.122D-01 0.895D+00
 Gap=     0.341 Goal=   None    Shift=    0.000
 RMSDP=1.85D-04 MaxDP=4.48D-03 DE=-1.08D-01 OVMax= 1.37D-02

 Cycle   4  Pass 1  IDiag  1:
 E= -188.632157579210     Delta-E=       -0.002136099127 Rises=F Damp=F
 DIIS: error= 1.84D-03 at cycle   4 NSaved=   4.
 NSaved= 4 IEnMin= 4 EnMin= -188.632157579210     IErMin= 4 ErrMin= 1.84D-03
 ErrMax= 1.84D-03  0.00D+00 EMaxC= 1.00D-01 BMatC= 1.70D-04 BMatP= 3.53D-03
 IDIUse=3 WtCom= 9.82D-01 WtEn= 1.84D-02
 Coeff-Com:  0.217D-01-0.298D-01 0.346D+00 0.662D+00
 Coeff-En:   0.000D+00 0.000D+00 0.000D+00 0.100D+01
 Coeff:      0.213D-01-0.292D-01 0.339D+00 0.669D+00
 Gap=     0.341 Goal=   None    Shift=    0.000
 RMSDP=4.13D-05 MaxDP=8.99D-04 DE=-2.14D-03 OVMax= 2.49D-03

 Cycle   5  Pass 1  IDiag  1:
 E= -188.632269359939     Delta-E=       -0.000111780730 Rises=F Damp=F
 DIIS: error= 9.78D-05 at cycle   5 NSaved=   5.
 NSaved= 5 IEnMin= 5 EnMin= -188.632269359939     IErMin= 5 ErrMin= 9.78D-05
 ErrMax= 9.78D-05  0.00D+00 EMaxC= 1.00D-01 BMatC= 9.16D-07 BMatP= 1.70D-04
 IDIUse=1 WtCom= 1.00D+00 WtEn= 0.00D+00
 Coeff-Com:  0.392D-02-0.778D-02 0.759D-01 0.178D+00 0.750D+00
 Coeff:      0.392D-02-0.778D-02 0.759D-01 0.178D+00 0.750D+00
 Gap=     0.341 Goal=   None    Shift=    0.000
 RMSDP=3.29D-06 MaxDP=6.05D-05 DE=-1.12D-04 OVMax= 1.40D-04

 Cycle   6  Pass 1  IDiag  1:
 E= -188.632269875412     Delta-E=       -0.000000515473 Rises=F Damp=F
 DIIS: error= 6.64D-06 at cycle   6 NSaved=   6.
 NSaved= 6 IEnMin= 6 EnMin= -188.632269875412     IErMin= 6 ErrMin= 6.64D-06
 ErrMax= 6.64D-06  0.00D+00 EMaxC= 1.00D-01 BMatC= 1.38D-09 BMatP= 9.16D-07
 IDIUse=1 WtCom= 1.00D+00 WtEn= 0.00D+00
 Coeff-Com: -0.987D-04 0.711D-04-0.615D-03-0.196D-02-0.124D-01 0.101D+01
 Coeff:     -0.987D-04 0.711D-04-0.615D-03-0.196D-02-0.124D-01 0.101D+01
 Gap=     0.341 Goal=   None    Shift=    0.000
 RMSDP=2.09D-07 MaxDP=9.11D-06 DE=-5.15D-07 OVMax= 2.13D-05

 Cycle   7  Pass 1  IDiag  1:
 E= -188.632269876926     Delta-E=       -0.000000001514 Rises=F Damp=F
 DIIS: error= 1.58D-06 at cycle   7 NSaved=   7.
 NSaved= 7 IEnMin= 7 EnMin= -188.632269876926     IErMin= 7 ErrMin= 1.58D-06
 ErrMax= 1.58D-06  0.00D+00 EMaxC= 1.00D-01 BMatC= 6.74D-11 BMatP= 1.38D-09
 IDIUse=1 WtCom= 1.00D+00 WtEn= 0.00D+00
 Coeff-Com: -0.287D-04 0.508D-04-0.367D-03-0.649D-03 0.146D-04-0.877D-01
 Coeff-Com:  0.109D+01
 Coeff:     -0.287D-04 0.508D-04-0.367D-03-0.649D-03 0.146D-04-0.877D-01
 Coeff:      0.109D+01
 Gap=     0.341 Goal=   None    Shift=    0.000
 RMSDP=3.39D-08 MaxDP=1.55D-06 DE=-1.51D-09 OVMax= 3.16D-06

 Cycle   8  Pass 1  IDiag  1:
 E= -188.632269876976     Delta-E=       -0.000000000050 Rises=F Damp=F
 DIIS: error= 2.16D-07 at cycle   8 NSaved=   8.
 NSaved= 8 IEnMin= 8 EnMin= -188.632269876976     IErMin= 8 ErrMin= 2.16D-07
 ErrMax= 2.16D-07  0.00D+00 EMaxC= 1.00D-01 BMatC= 2.20D-12 BMatP= 6.74D-11
 IDIUse=1 WtCom= 1.00D+00 WtEn= 0.00D+00
 Coeff-Com: -0.236D-05 0.490D-05-0.896D-05 0.449D-04 0.248D-03-0.691D-02
 Coeff-Com: -0.181D-02 0.101D+01
 Coeff:     -0.236D-05 0.490D-05-0.896D-05 0.449D-04 0.248D-03-0.691D-02
 Coeff:     -0.181D-02 0.101D+01
 Gap=     0.341 Goal=   None    Shift=    0.000
 RMSDP=4.83D-09 MaxDP=2.17D-07 DE=-5.01D-11 OVMax= 3.60D-07

 SCF Done:  E(RB3LYP) =  -188.632269877     A.U. after    8 cycles
            NFock=  8  Conv=0.48D-08     -V/T= 2.0096
 KE= 1.868356914444D+02 PE=-5.507676295297D+02 EE= 1.214736327683D+02
 Leave Link  502 at Fri Sep  6 10:19:10 2024, MaxMem=  1073741824 cpu:               5.4 elap:               0.7
 (Enter /Users/asuyarger/Applications/G16/g16/l601.exe)
 Copying SCF densities to generalized density rwf, IOpCl= 0 IROHF=0.

 **********************************************************************

            Population analysis using the SCF density.

 **********************************************************************

 Orbital symmetries:
       Occupied  (SGU) (SGG) (SGG) (SGG) (SGU) (SGG) (SGU) (PIU)
                 (PIU) (PIG) (PIG)
       Virtual   (PIU) (PIU) (SGG) (SGU) (PIU) (PIU) (SGG) (SGG)
                 (PIG) (PIG) (SGU) (PIU) (PIU) (DLTG) (DLTG) (SGU)
                 (SGG) (PIU) (PIU) (PIG) (PIG) (SGG) (SGU) (DLTU)
                 (DLTU) (SGG) (SGU) (PIG) (PIG) (DLTG) (DLTG) (PIU)
                 (PIU) (SGG) (SGU) (DLTG) (DLTG) (PHIU) (PHIU)
                 (SGU) (PIU) (PIU) (PIG) (PIG) (DLTU) (DLTU) (SGU)
                 (PIG) (PIG) (SGG) (PIU) (PIU) (SGG) (PHIG) (PHIG)
                 (DLTU) (DLTU) (DLTG) (DLTG) (PHIU) (PHIU) (SGG)
                 (PIU) (PIU) (SGG) (PIG) (PIG) (SGU) (DLTG) (DLTG)
                 (SGU) (PIU) (PIU) (DLTU) (DLTU) (SGU) (PIG) (PIG)
                 (PIU) (PIU) (DLTG) (DLTG) (SGG) (PHIU) (PHIU)
                 (SGU) (PIG) (PIG) (DLTU) (DLTU) (PIU) (PIU) (SGG)
                 (PIG) (PIG) (SGU) (SGG) (PIU) (PIU) (SGU) (PHIG)
                 (PHIG) (PHIU) (PHIU) (DLTG) (DLTG) (DLTU) (DLTU)
                 (PIG) (PIG) (DLTG) (DLTG) (DLTU) (DLTU) (SGU)
                 (PIU) (PIU) (SGG) (SGG) (PIG) (PIG) (SGU) (PIU)
                 (PIU) (SGG) (SGG) (SGU)
 The electronic state is 1-SGG.
 Alpha  occ. eigenvalues --  -19.24014 -19.24013 -10.40943  -1.13027  -1.09169
 Alpha  occ. eigenvalues --   -0.59150  -0.52766  -0.49742  -0.49742  -0.38161
 Alpha  occ. eigenvalues --   -0.38161
 Alpha virt. eigenvalues --   -0.04049  -0.04049  -0.03698   0.03855   0.04098
 Alpha virt. eigenvalues --    0.04098   0.07674   0.10958   0.11451   0.11451
 Alpha virt. eigenvalues --    0.17133   0.18318   0.18318   0.19053   0.19053
 Alpha virt. eigenvalues --    0.21822   0.23708   0.34158   0.34158   0.38609
 Alpha virt. eigenvalues --    0.38609   0.39380   0.47625   0.51058   0.51058
 Alpha virt. eigenvalues --    0.56398   0.61199   0.61783   0.61783   0.64471
 Alpha virt. eigenvalues --    0.64471   0.71836   0.71836   0.75982   0.85741
 Alpha virt. eigenvalues --    0.87634   0.87634   0.89152   0.89152   0.89412
 Alpha virt. eigenvalues --    0.91725   0.91725   0.99801   0.99801   1.16862
 Alpha virt. eigenvalues --    1.16862   1.19102   1.25671   1.25671   1.28969
 Alpha virt. eigenvalues --    1.35977   1.35977   1.62875   1.78659   1.78659
 Alpha virt. eigenvalues --    1.89617   1.89617   1.95921   1.95921   1.99237
 Alpha virt. eigenvalues --    1.99237   2.00394   2.00805   2.00805   2.06694
 Alpha virt. eigenvalues --    2.13582   2.13582   2.14862   2.28196   2.28196
 Alpha virt. eigenvalues --    2.40410   2.49280   2.49280   2.52427   2.52427
 Alpha virt. eigenvalues --    2.66416   2.71191   2.71191   2.76972   2.76972
 Alpha virt. eigenvalues --    2.99866   2.99866   3.06890   3.07685   3.07685
 Alpha virt. eigenvalues --    3.31104   3.47826   3.47826   3.49462   3.49462
 Alpha virt. eigenvalues --    3.66846   3.66846   4.05190   4.17566   4.17566
 Alpha virt. eigenvalues --    4.40491   4.80777   4.97222   4.97222   5.86587
 Alpha virt. eigenvalues --    5.97881   5.97881   6.06974   6.06974   6.18034
 Alpha virt. eigenvalues --    6.18034   6.36588   6.36588   6.43004   6.43004
 Alpha virt. eigenvalues --    6.51724   6.51724   6.62161   6.62161   6.64660
 Alpha virt. eigenvalues --    6.69863   6.69863   6.71766   6.80610   7.14731
 Alpha virt. eigenvalues --    7.14731   7.27629   7.31940   7.31940  11.23417
 Alpha virt. eigenvalues --   13.50446  16.35776
     Molecular Orbital Coefficients:
                           1         2         3         4         5
                       (SGU)--O  (SGG)--O  (SGG)--O  (SGG)--O  (SGU)--O
     Eigenvalues --   -19.24014 -19.24013 -10.40943  -1.13027  -1.09169
   1 1   C  1S          0.00000   0.00051   0.97667  -0.13465   0.00000
   2        2S          0.00000   0.00401   0.00879   0.28632   0.00000
   3        3S          0.00000   0.00052   0.05513   0.08384   0.00000
   4        4S          0.00000   0.00080   0.01032   0.06696   0.00000
   5        5S          0.00000   0.00071   0.00175  -0.00305   0.00000
   6        6PX         0.00000   0.00000   0.00000   0.00000   0.00000
   7        6PY         0.00000   0.00000   0.00000   0.00000   0.00000
   8        6PZ         0.00067   0.00000   0.00000   0.00000   0.16697
   9        7PX         0.00000   0.00000   0.00000   0.00000   0.00000
  10        7PY         0.00000   0.00000   0.00000   0.00000   0.00000
  11        7PZ         0.00202   0.00000   0.00000   0.00000   0.11395
  12        8PX         0.00000   0.00000   0.00000   0.00000   0.00000
  13        8PY         0.00000   0.00000   0.00000   0.00000   0.00000
  14        8PZ        -0.00375   0.00000   0.00000   0.00000  -0.01916
  15        9PX         0.00000   0.00000   0.00000   0.00000   0.00000
  16        9PY         0.00000   0.00000   0.00000   0.00000   0.00000
  17        9PZ         0.00054   0.00000   0.00000   0.00000  -0.00477
  18       10D 0        0.00000   0.00096   0.00415   0.02423   0.00000
  19       10D+1        0.00000   0.00000   0.00000   0.00000   0.00000
  20       10D-1        0.00000   0.00000   0.00000   0.00000   0.00000
  21       10D+2        0.00000  -0.00000   0.00000  -0.00000   0.00000
  22       10D-2        0.00000   0.00000   0.00000   0.00000   0.00000
  23       11D 0        0.00000   0.00028  -0.00442   0.02246   0.00000
  24       11D+1        0.00000   0.00000   0.00000   0.00000   0.00000
  25       11D-1        0.00000   0.00000   0.00000   0.00000   0.00000
  26       11D+2        0.00000   0.00000  -0.00000   0.00000   0.00000
  27       11D-2        0.00000   0.00000   0.00000   0.00000   0.00000
  28       12D 0        0.00000  -0.00076  -0.00445  -0.01557   0.00000
  29       12D+1        0.00000   0.00000   0.00000   0.00000   0.00000
  30       12D-1        0.00000   0.00000   0.00000   0.00000   0.00000
  31       12D+2        0.00000   0.00000  -0.00000   0.00000   0.00000
  32       12D-2        0.00000   0.00000   0.00000   0.00000   0.00000
  33       13F 0       -0.00069   0.00000   0.00000   0.00000   0.00489
  34       13F+1        0.00000   0.00000   0.00000   0.00000   0.00000
  35       13F-1        0.00000   0.00000   0.00000   0.00000   0.00000
  36       13F+2        0.00000   0.00000   0.00000   0.00000  -0.00000
  37       13F-2        0.00000   0.00000   0.00000   0.00000   0.00000
  38       13F+3        0.00000   0.00000   0.00000   0.00000   0.00000
  39       13F-3        0.00000   0.00000   0.00000   0.00000   0.00000
  40       14F 0       -0.00083   0.00000   0.00000   0.00000   0.00304
  41       14F+1        0.00000   0.00000   0.00000   0.00000   0.00000
  42       14F-1        0.00000   0.00000   0.00000   0.00000   0.00000
  43       14F+2       -0.00000   0.00000   0.00000   0.00000  -0.00000
  44       14F-2        0.00000   0.00000   0.00000   0.00000   0.00000
  45       14F+3        0.00000   0.00000   0.00000   0.00000   0.00000
  46       14F-3        0.00000   0.00000   0.00000   0.00000   0.00000
  47 2   O  1S          0.68820   0.68796   0.00027  -0.13164  -0.14435
  48        2S         -0.00707  -0.00833   0.00292   0.30431   0.32989
  49        3S          0.03610   0.03636   0.00082   0.09144   0.09868
  50        4S          0.00238   0.00154  -0.00434   0.15653   0.21834
  51        5S         -0.00063  -0.00135  -0.00615  -0.00540   0.02853
  52        6PX         0.00000   0.00000   0.00000   0.00000   0.00000
  53        6PY         0.00000   0.00000   0.00000   0.00000   0.00000
  54        6PZ        -0.00117  -0.00127  -0.00060  -0.06398  -0.06280
  55        7PX         0.00000   0.00000   0.00000   0.00000   0.00000
  56        7PY         0.00000   0.00000   0.00000   0.00000   0.00000
  57        7PZ         0.00020   0.00114   0.00030  -0.07658  -0.08092
  58        8PX         0.00000   0.00000   0.00000   0.00000   0.00000
  59        8PY         0.00000   0.00000   0.00000   0.00000   0.00000
  60        8PZ         0.00221   0.00136   0.01080  -0.00087  -0.04206
  61        9PX         0.00000   0.00000   0.00000   0.00000   0.00000
  62        9PY         0.00000   0.00000   0.00000   0.00000   0.00000
  63        9PZ        -0.00012   0.00041   0.00278   0.00872  -0.00248
  64       10D 0        0.00026   0.00021   0.00046   0.00522   0.00493
  65       10D+1        0.00000   0.00000   0.00000   0.00000   0.00000
  66       10D-1        0.00000   0.00000   0.00000   0.00000   0.00000
  67       10D+2       -0.00000  -0.00000  -0.00000  -0.00000  -0.00000
  68       10D-2        0.00000   0.00000   0.00000   0.00000   0.00000
  69       11D 0       -0.00042  -0.00087  -0.00354   0.01119   0.01921
  70       11D+1        0.00000   0.00000   0.00000   0.00000   0.00000
  71       11D-1        0.00000   0.00000   0.00000   0.00000   0.00000
  72       11D+2        0.00000   0.00000   0.00000   0.00000   0.00000
  73       11D-2        0.00000   0.00000   0.00000   0.00000   0.00000
  74       12D 0       -0.00129  -0.00054  -0.00493  -0.00839   0.00481
  75       12D+1        0.00000   0.00000   0.00000   0.00000   0.00000
  76       12D-1        0.00000   0.00000   0.00000   0.00000   0.00000
  77       12D+2        0.00000  -0.00000   0.00000   0.00000   0.00000
  78       12D-2        0.00000   0.00000   0.00000   0.00000   0.00000
  79       13F 0       -0.00010   0.00009   0.00032  -0.00253  -0.00337
  80       13F+1        0.00000   0.00000   0.00000   0.00000   0.00000
  81       13F-1        0.00000   0.00000   0.00000   0.00000   0.00000
  82       13F+2        0.00000  -0.00000   0.00000  -0.00000   0.00000
  83       13F-2        0.00000   0.00000   0.00000   0.00000   0.00000
  84       13F+3        0.00000   0.00000   0.00000   0.00000   0.00000
  85       13F-3        0.00000   0.00000   0.00000   0.00000   0.00000
  86       14F 0        0.00039   0.00047   0.00292  -0.00007  -0.00436
  87       14F+1        0.00000   0.00000   0.00000   0.00000   0.00000
  88       14F-1        0.00000   0.00000   0.00000   0.00000   0.00000
  89       14F+2       -0.00000   0.00000  -0.00000  -0.00000  -0.00000
  90       14F-2        0.00000   0.00000   0.00000   0.00000   0.00000
  91       14F+3        0.00000   0.00000   0.00000   0.00000   0.00000
  92       14F-3        0.00000   0.00000   0.00000   0.00000   0.00000
  93 3   O  1S         -0.68820   0.68796   0.00027  -0.13164   0.14435
  94        2S          0.00707  -0.00833   0.00292   0.30431  -0.32989
  95        3S         -0.03610   0.03636   0.00082   0.09144  -0.09868
  96        4S         -0.00238   0.00154  -0.00434   0.15653  -0.21834
  97        5S          0.00063  -0.00135  -0.00615  -0.00540  -0.02853
  98        6PX         0.00000   0.00000   0.00000   0.00000   0.00000
  99        6PY         0.00000   0.00000   0.00000   0.00000   0.00000
 100        6PZ        -0.00117   0.00127   0.00060   0.06398  -0.06280
 101        7PX         0.00000   0.00000   0.00000   0.00000   0.00000
 102        7PY         0.00000   0.00000   0.00000   0.00000   0.00000
 103        7PZ         0.00020  -0.00114  -0.00030   0.07658  -0.08092
 104        8PX         0.00000   0.00000   0.00000   0.00000   0.00000
 105        8PY         0.00000   0.00000   0.00000   0.00000   0.00000
 106        8PZ         0.00221  -0.00136  -0.01080   0.00087  -0.04206
 107        9PX         0.00000   0.00000   0.00000   0.00000   0.00000
 108        9PY         0.00000   0.00000   0.00000   0.00000   0.00000
 109        9PZ        -0.00012  -0.00041  -0.00278  -0.00872  -0.00248
 110       10D 0       -0.00026   0.00021   0.00046   0.00522  -0.00493
 111       10D+1        0.00000   0.00000   0.00000   0.00000   0.00000
 112       10D-1        0.00000   0.00000   0.00000   0.00000   0.00000
 113       10D+2        0.00000  -0.00000  -0.00000  -0.00000   0.00000
 114       10D-2        0.00000   0.00000   0.00000   0.00000   0.00000
 115       11D 0        0.00042  -0.00087  -0.00354   0.01119  -0.01921
 116       11D+1        0.00000   0.00000   0.00000   0.00000   0.00000
 117       11D-1        0.00000   0.00000   0.00000   0.00000   0.00000
 118       11D+2       -0.00000   0.00000   0.00000   0.00000  -0.00000
 119       11D-2        0.00000   0.00000   0.00000   0.00000   0.00000
 120       12D 0        0.00129  -0.00054  -0.00493  -0.00839  -0.00481
 121       12D+1        0.00000   0.00000   0.00000   0.00000   0.00000
 122       12D-1        0.00000   0.00000   0.00000   0.00000   0.00000
 123       12D+2       -0.00000  -0.00000   0.00000   0.00000  -0.00000
 124       12D-2        0.00000   0.00000   0.00000   0.00000   0.00000
 125       13F 0       -0.00010  -0.00009  -0.00032   0.00253  -0.00337
 126       13F+1        0.00000   0.00000   0.00000   0.00000   0.00000
 127       13F-1        0.00000   0.00000   0.00000   0.00000   0.00000
 128       13F+2        0.00000   0.00000  -0.00000   0.00000   0.00000
 129       13F-2        0.00000   0.00000   0.00000   0.00000   0.00000
 130       13F+3        0.00000   0.00000   0.00000   0.00000   0.00000
 131       13F-3        0.00000   0.00000   0.00000   0.00000   0.00000
 132       14F 0        0.00039  -0.00047  -0.00292   0.00007  -0.00436
 133       14F+1        0.00000   0.00000   0.00000   0.00000   0.00000
 134       14F-1        0.00000   0.00000   0.00000   0.00000   0.00000
 135       14F+2       -0.00000  -0.00000   0.00000   0.00000  -0.00000
 136       14F-2        0.00000   0.00000   0.00000   0.00000   0.00000
 137       14F+3        0.00000   0.00000   0.00000   0.00000   0.00000
 138       14F-3        0.00000   0.00000   0.00000   0.00000   0.00000
                           6         7         8         9        10
                       (SGG)--O  (SGU)--O  (PIU)--O  (PIU)--O  (PIG)--O
     Eigenvalues --    -0.59150  -0.52766  -0.49742  -0.49742  -0.38161
   1 1   C  1S         -0.14044   0.00000   0.00000   0.00000   0.00000
   2        2S          0.34039   0.00000   0.00000   0.00000   0.00000
   3        3S          0.10452   0.00000   0.00000   0.00000   0.00000
   4        4S          0.17057   0.00000   0.00000   0.00000   0.00000
   5        5S          0.01753   0.00000   0.00000   0.00000   0.00000
   6        6PX         0.00000   0.00000   0.21969   0.00000   0.00000
   7        6PY         0.00000   0.00000   0.00000   0.21969   0.00000
   8        6PZ         0.00000  -0.20441   0.00000   0.00000   0.00000
   9        7PX         0.00000   0.00000   0.26895   0.00000   0.00000
  10        7PY         0.00000   0.00000   0.00000   0.26895   0.00000
  11        7PZ         0.00000  -0.22163   0.00000   0.00000   0.00000
  12        8PX         0.00000   0.00000   0.10083   0.00000   0.00000
  13        8PY         0.00000   0.00000   0.00000   0.10083   0.00000
  14        8PZ         0.00000  -0.00155   0.00000   0.00000   0.00000
  15        9PX         0.00000   0.00000   0.00453   0.00000   0.00000
  16        9PY         0.00000   0.00000   0.00000   0.00453   0.00000
  17        9PZ         0.00000   0.00028   0.00000   0.00000   0.00000
  18       10D 0        0.00623   0.00000   0.00000   0.00000   0.00000
  19       10D+1        0.00000   0.00000   0.00000   0.00000   0.00000
  20       10D-1        0.00000   0.00000   0.00000   0.00000   0.02961
  21       10D+2       -0.00000   0.00000   0.00000   0.00000   0.00000
  22       10D-2        0.00000   0.00000   0.00000   0.00000   0.00000
  23       11D 0        0.00361   0.00000   0.00000   0.00000   0.00000
  24       11D+1        0.00000   0.00000   0.00000   0.00000   0.00000
  25       11D-1        0.00000   0.00000   0.00000   0.00000   0.04727
  26       11D+2        0.00000   0.00000   0.00000   0.00000   0.00000
  27       11D-2        0.00000   0.00000   0.00000   0.00000   0.00000
  28       12D 0        0.00524   0.00000   0.00000   0.00000   0.00000
  29       12D+1        0.00000   0.00000   0.00000   0.00000   0.00000
  30       12D-1        0.00000   0.00000   0.00000   0.00000   0.00063
  31       12D+2       -0.00000   0.00000   0.00000   0.00000   0.00000
  32       12D-2        0.00000   0.00000   0.00000   0.00000   0.00000
  33       13F 0        0.00000  -0.00960   0.00000   0.00000   0.00000
  34       13F+1        0.00000   0.00000   0.01467   0.00000   0.00000
  35       13F-1        0.00000   0.00000   0.00000   0.01467   0.00000
  36       13F+2        0.00000   0.00000   0.00000   0.00000   0.00000
  37       13F-2        0.00000   0.00000   0.00000   0.00000   0.00000
  38       13F+3        0.00000   0.00000   0.00000   0.00000   0.00000
  39       13F-3        0.00000   0.00000   0.00000  -0.00000   0.00000
  40       14F 0        0.00000   0.00801   0.00000   0.00000   0.00000
  41       14F+1        0.00000   0.00000   0.00887   0.00000   0.00000
  42       14F-1        0.00000   0.00000   0.00000   0.00887   0.00000
  43       14F+2        0.00000  -0.00000   0.00000   0.00000   0.00000
  44       14F-2        0.00000   0.00000   0.00000   0.00000   0.00000
  45       14F+3        0.00000   0.00000  -0.00000   0.00000   0.00000
  46       14F-3        0.00000   0.00000   0.00000   0.00000   0.00000
  47 2   O  1S          0.08960  -0.06376   0.00000   0.00000   0.00000
  48        2S         -0.22166   0.15946   0.00000   0.00000   0.00000
  49        3S         -0.07123   0.05151   0.00000   0.00000   0.00000
  50        4S         -0.24648   0.18923   0.00000   0.00000   0.00000
  51        5S         -0.04499   0.03264   0.00000   0.00000   0.00000
  52        6PX         0.00000   0.00000   0.20269   0.00000   0.00000
  53        6PY         0.00000   0.00000   0.00000   0.20269   0.26896
  54        6PZ        -0.17703   0.22559   0.00000   0.00000   0.00000
  55        7PX         0.00000   0.00000   0.23655   0.00000   0.00000
  56        7PY         0.00000   0.00000   0.00000   0.23655   0.32020
  57        7PZ        -0.20040   0.25541   0.00000   0.00000   0.00000
  58        8PX         0.00000   0.00000   0.14793   0.00000   0.00000
  59        8PY         0.00000   0.00000   0.00000   0.14793   0.23686
  60        8PZ        -0.10286   0.13290   0.00000   0.00000   0.00000
  61        9PX         0.00000   0.00000   0.00610   0.00000   0.00000
  62        9PY         0.00000   0.00000   0.00000   0.00610   0.03546
  63        9PZ        -0.00341   0.00707   0.00000   0.00000   0.00000
  64       10D 0        0.00663  -0.00820   0.00000   0.00000   0.00000
  65       10D+1        0.00000   0.00000  -0.00715   0.00000   0.00000
  66       10D-1        0.00000   0.00000   0.00000  -0.00715  -0.00489
  67       10D+2       -0.00000  -0.00000   0.00000   0.00000   0.00000
  68       10D-2        0.00000   0.00000   0.00000   0.00000   0.00000
  69       11D 0        0.01313  -0.01706   0.00000   0.00000   0.00000
  70       11D+1        0.00000   0.00000  -0.01539   0.00000   0.00000
  71       11D-1        0.00000   0.00000   0.00000  -0.01539  -0.01658
  72       11D+2       -0.00000  -0.00000   0.00000   0.00000   0.00000
  73       11D-2        0.00000   0.00000   0.00000   0.00000   0.00000
  74       12D 0        0.00318   0.00137   0.00000   0.00000   0.00000
  75       12D+1        0.00000   0.00000  -0.00697   0.00000   0.00000
  76       12D-1        0.00000   0.00000   0.00000  -0.00697  -0.00641
  77       12D+2       -0.00000   0.00000   0.00000   0.00000   0.00000
  78       12D-2        0.00000   0.00000   0.00000   0.00000   0.00000
  79       13F 0       -0.00262   0.00348   0.00000   0.00000   0.00000
  80       13F+1        0.00000   0.00000   0.00349   0.00000   0.00000
  81       13F-1        0.00000   0.00000   0.00000   0.00349   0.00312
  82       13F+2       -0.00000   0.00000   0.00000   0.00000   0.00000
  83       13F-2        0.00000   0.00000   0.00000   0.00000   0.00000
  84       13F+3        0.00000   0.00000  -0.00000   0.00000   0.00000
  85       13F-3        0.00000   0.00000   0.00000   0.00000   0.00000
  86       14F 0       -0.00147   0.00335   0.00000   0.00000   0.00000
  87       14F+1        0.00000   0.00000   0.00078   0.00000   0.00000
  88       14F-1        0.00000   0.00000   0.00000   0.00078   0.00319
  89       14F+2        0.00000   0.00000   0.00000   0.00000   0.00000
  90       14F-2        0.00000   0.00000   0.00000   0.00000   0.00000
  91       14F+3        0.00000   0.00000   0.00000   0.00000   0.00000
  92       14F-3        0.00000   0.00000   0.00000  -0.00000  -0.00000
  93 3   O  1S          0.08960   0.06376   0.00000   0.00000   0.00000
  94        2S         -0.22166  -0.15946   0.00000   0.00000   0.00000
  95        3S         -0.07123  -0.05151   0.00000   0.00000   0.00000
  96        4S         -0.24648  -0.18923   0.00000   0.00000   0.00000
  97        5S         -0.04499  -0.03264   0.00000   0.00000   0.00000
  98        6PX         0.00000   0.00000   0.20269   0.00000   0.00000
  99        6PY         0.00000   0.00000   0.00000   0.20269  -0.26896
 100        6PZ         0.17703   0.22559   0.00000   0.00000   0.00000
 101        7PX         0.00000   0.00000   0.23655   0.00000   0.00000
 102        7PY         0.00000   0.00000   0.00000   0.23655  -0.32020
 103        7PZ         0.20040   0.25541   0.00000   0.00000   0.00000
 104        8PX         0.00000   0.00000   0.14793   0.00000   0.00000
 105        8PY         0.00000   0.00000   0.00000   0.14793  -0.23686
 106        8PZ         0.10286   0.13290   0.00000   0.00000   0.00000
 107        9PX         0.00000   0.00000   0.00610   0.00000   0.00000
 108        9PY         0.00000   0.00000   0.00000   0.00610  -0.03546
 109        9PZ         0.00341   0.00707   0.00000   0.00000   0.00000
 110       10D 0        0.00663   0.00820   0.00000   0.00000   0.00000
 111       10D+1        0.00000   0.00000   0.00715   0.00000   0.00000
 112       10D-1        0.00000   0.00000   0.00000   0.00715  -0.00489
 113       10D+2       -0.00000   0.00000   0.00000   0.00000   0.00000
 114       10D-2        0.00000   0.00000   0.00000   0.00000   0.00000
 115       11D 0        0.01313   0.01706   0.00000   0.00000   0.00000
 116       11D+1        0.00000   0.00000   0.01539   0.00000   0.00000
 117       11D-1        0.00000   0.00000   0.00000   0.01539  -0.01658
 118       11D+2       -0.00000   0.00000   0.00000   0.00000   0.00000
 119       11D-2        0.00000   0.00000   0.00000   0.00000   0.00000
 120       12D 0        0.00318  -0.00137   0.00000   0.00000   0.00000
 121       12D+1        0.00000   0.00000   0.00697   0.00000   0.00000
 122       12D-1        0.00000   0.00000   0.00000   0.00697  -0.00641
 123       12D+2       -0.00000  -0.00000   0.00000   0.00000   0.00000
 124       12D-2        0.00000   0.00000   0.00000   0.00000   0.00000
 125       13F 0        0.00262   0.00348   0.00000   0.00000   0.00000
 126       13F+1        0.00000   0.00000   0.00349   0.00000   0.00000
 127       13F-1        0.00000   0.00000   0.00000   0.00349  -0.00312
 128       13F+2        0.00000   0.00000   0.00000   0.00000   0.00000
 129       13F-2        0.00000   0.00000   0.00000   0.00000   0.00000
 130       13F+3        0.00000   0.00000  -0.00000   0.00000   0.00000
 131       13F-3        0.00000   0.00000   0.00000   0.00000  -0.00000
 132       14F 0        0.00147   0.00335   0.00000   0.00000   0.00000
 133       14F+1        0.00000   0.00000   0.00078   0.00000   0.00000
 134       14F-1        0.00000   0.00000   0.00000   0.00078  -0.00319
 135       14F+2       -0.00000   0.00000   0.00000   0.00000   0.00000
 136       14F-2        0.00000   0.00000   0.00000   0.00000   0.00000
 137       14F+3        0.00000   0.00000   0.00000   0.00000   0.00000
 138       14F-3        0.00000   0.00000   0.00000  -0.00000   0.00000
                          11        12        13        14        15
                       (PIG)--O  (PIU)--V  (PIU)--V  (SGG)--V  (SGU)--V
     Eigenvalues --    -0.38161  -0.04049  -0.04049  -0.03698   0.03855
   1 1   C  1S          0.00000   0.00000   0.00000  -0.05183   0.00000
   2        2S          0.00000   0.00000   0.00000   0.14090   0.00000
   3        3S          0.00000   0.00000   0.00000   0.02448   0.00000
   4        4S          0.00000   0.00000   0.00000   1.20845   0.00000
   5        5S          0.00000   0.00000   0.00000   2.01257   0.00000
   6        6PX         0.00000   0.00000   0.33128   0.00000   0.00000
   7        6PY         0.00000   0.33128   0.00000   0.00000   0.00000
   8        6PZ         0.00000   0.00000   0.00000   0.00000  -0.01171
   9        7PX         0.00000   0.00000   0.43634   0.00000   0.00000
  10        7PY         0.00000   0.43634   0.00000   0.00000   0.00000
  11        7PZ         0.00000   0.00000   0.00000   0.00000  -0.31410
  12        8PX         0.00000   0.00000   0.52153   0.00000   0.00000
  13        8PY         0.00000   0.52153   0.00000   0.00000   0.00000
  14        8PZ         0.00000   0.00000   0.00000   0.00000  -1.19142
  15        9PX         0.00000   0.00000   0.23977   0.00000   0.00000
  16        9PY         0.00000   0.23977   0.00000   0.00000   0.00000
  17        9PZ         0.00000   0.00000   0.00000   0.00000  -1.87149
  18       10D 0        0.00000   0.00000   0.00000  -0.04114   0.00000
  19       10D+1        0.02961   0.00000   0.00000   0.00000   0.00000
  20       10D-1        0.00000   0.00000   0.00000   0.00000   0.00000
  21       10D+2        0.00000   0.00000   0.00000   0.00000   0.00000
  22       10D-2        0.00000   0.00000   0.00000   0.00000   0.00000
  23       11D 0        0.00000   0.00000   0.00000  -0.00439   0.00000
  24       11D+1        0.04727   0.00000   0.00000   0.00000   0.00000
  25       11D-1        0.00000   0.00000   0.00000   0.00000   0.00000
  26       11D+2        0.00000   0.00000   0.00000  -0.00000   0.00000
  27       11D-2        0.00000   0.00000   0.00000   0.00000   0.00000
  28       12D 0        0.00000   0.00000   0.00000   0.11148   0.00000
  29       12D+1        0.00063   0.00000   0.00000   0.00000   0.00000
  30       12D-1        0.00000   0.00000   0.00000   0.00000   0.00000
  31       12D+2        0.00000   0.00000   0.00000   0.00000   0.00000
  32       12D-2        0.00000   0.00000   0.00000   0.00000   0.00000
  33       13F 0        0.00000   0.00000   0.00000   0.00000  -0.01917
  34       13F+1        0.00000   0.00000  -0.00581   0.00000   0.00000
  35       13F-1        0.00000  -0.00581   0.00000   0.00000   0.00000
  36       13F+2        0.00000   0.00000   0.00000   0.00000   0.00000
  37       13F-2        0.00000   0.00000   0.00000   0.00000   0.00000
  38       13F+3        0.00000   0.00000   0.00000   0.00000   0.00000
  39       13F-3        0.00000  -0.00000   0.00000   0.00000   0.00000
  40       14F 0        0.00000   0.00000   0.00000   0.00000  -0.01884
  41       14F+1        0.00000   0.00000  -0.00280   0.00000   0.00000
  42       14F-1        0.00000  -0.00280   0.00000   0.00000   0.00000
  43       14F+2        0.00000   0.00000   0.00000   0.00000  -0.00000
  44       14F-2        0.00000   0.00000   0.00000   0.00000   0.00000
  45       14F+3        0.00000   0.00000  -0.00000   0.00000   0.00000
  46       14F-3        0.00000   0.00000   0.00000   0.00000   0.00000
  47 2   O  1S          0.00000   0.00000   0.00000   0.05290  -0.02592
  48        2S          0.00000   0.00000   0.00000  -0.14418   0.05774
  49        3S          0.00000   0.00000   0.00000  -0.04942   0.01566
  50        4S          0.00000   0.00000   0.00000  -0.42105   0.56290
  51        5S          0.00000   0.00000   0.00000  -0.90000   2.11867
  52        6PX         0.26896   0.00000  -0.20565   0.00000   0.00000
  53        6PY         0.00000  -0.20565   0.00000   0.00000   0.00000
  54        6PZ         0.00000   0.00000   0.00000   0.11349   0.02968
  55        7PX         0.32020   0.00000  -0.24491   0.00000   0.00000
  56        7PY         0.00000  -0.24491   0.00000   0.00000   0.00000
  57        7PZ         0.00000   0.00000   0.00000   0.14867   0.00578
  58        8PX         0.23686   0.00000  -0.28207   0.00000   0.00000
  59        8PY         0.00000  -0.28207   0.00000   0.00000   0.00000
  60        8PZ         0.00000   0.00000   0.00000   0.23704  -0.34120
  61        9PX         0.03546   0.00000  -0.19976   0.00000   0.00000
  62        9PY         0.00000  -0.19976   0.00000   0.00000   0.00000
  63        9PZ         0.00000   0.00000   0.00000   0.23257  -0.36417
  64       10D 0        0.00000   0.00000   0.00000  -0.00160  -0.00275
  65       10D+1       -0.00489   0.00000  -0.00526   0.00000   0.00000
  66       10D-1        0.00000  -0.00526   0.00000   0.00000   0.00000
  67       10D+2        0.00000   0.00000   0.00000   0.00000  -0.00000
  68       10D-2        0.00000   0.00000   0.00000   0.00000   0.00000
  69       11D 0        0.00000   0.00000   0.00000  -0.00806   0.03600
  70       11D+1       -0.01658   0.00000  -0.01543   0.00000   0.00000
  71       11D-1        0.00000  -0.01543   0.00000   0.00000   0.00000
  72       11D+2        0.00000   0.00000   0.00000   0.00000   0.00000
  73       11D-2        0.00000   0.00000   0.00000   0.00000   0.00000
  74       12D 0        0.00000   0.00000   0.00000  -0.01637   0.05889
  75       12D+1       -0.00641   0.00000  -0.00948   0.00000   0.00000
  76       12D-1        0.00000  -0.00948   0.00000   0.00000   0.00000
  77       12D+2        0.00000   0.00000   0.00000   0.00000   0.00000
  78       12D-2        0.00000   0.00000   0.00000   0.00000   0.00000
  79       13F 0        0.00000   0.00000   0.00000   0.00108  -0.00172
  80       13F+1        0.00312   0.00000   0.00249   0.00000   0.00000
  81       13F-1        0.00000   0.00249   0.00000   0.00000   0.00000
  82       13F+2        0.00000   0.00000   0.00000   0.00000   0.00000
  83       13F-2        0.00000   0.00000   0.00000   0.00000   0.00000
  84       13F+3       -0.00000   0.00000  -0.00000   0.00000   0.00000
  85       13F-3        0.00000   0.00000   0.00000   0.00000   0.00000
  86       14F 0        0.00000   0.00000   0.00000  -0.00007  -0.01380
  87       14F+1        0.00319   0.00000   0.00139   0.00000   0.00000
  88       14F-1        0.00000   0.00139   0.00000   0.00000   0.00000
  89       14F+2        0.00000   0.00000   0.00000  -0.00000  -0.00000
  90       14F-2        0.00000   0.00000   0.00000   0.00000   0.00000
  91       14F+3        0.00000   0.00000   0.00000   0.00000   0.00000
  92       14F-3        0.00000  -0.00000   0.00000   0.00000   0.00000
  93 3   O  1S          0.00000   0.00000   0.00000   0.05290   0.02592
  94        2S          0.00000   0.00000   0.00000  -0.14418  -0.05774
  95        3S          0.00000   0.00000   0.00000  -0.04942  -0.01566
  96        4S          0.00000   0.00000   0.00000  -0.42105  -0.56290
  97        5S          0.00000   0.00000   0.00000  -0.90000  -2.11867
  98        6PX        -0.26896   0.00000  -0.20565   0.00000   0.00000
  99        6PY         0.00000  -0.20565   0.00000   0.00000   0.00000
 100        6PZ         0.00000   0.00000   0.00000  -0.11349   0.02968
 101        7PX        -0.32020   0.00000  -0.24491   0.00000   0.00000
 102        7PY         0.00000  -0.24491   0.00000   0.00000   0.00000
 103        7PZ         0.00000   0.00000   0.00000  -0.14867   0.00578
 104        8PX        -0.23686   0.00000  -0.28207   0.00000   0.00000
 105        8PY         0.00000  -0.28207   0.00000   0.00000   0.00000
 106        8PZ         0.00000   0.00000   0.00000  -0.23704  -0.34120
 107        9PX        -0.03546   0.00000  -0.19976   0.00000   0.00000
 108        9PY         0.00000  -0.19976   0.00000   0.00000   0.00000
 109        9PZ         0.00000   0.00000   0.00000  -0.23257  -0.36417
 110       10D 0        0.00000   0.00000   0.00000  -0.00160   0.00275
 111       10D+1       -0.00489   0.00000   0.00526   0.00000   0.00000
 112       10D-1        0.00000   0.00526   0.00000   0.00000   0.00000
 113       10D+2        0.00000   0.00000   0.00000   0.00000   0.00000
 114       10D-2        0.00000   0.00000   0.00000   0.00000   0.00000
 115       11D 0        0.00000   0.00000   0.00000  -0.00806  -0.03600
 116       11D+1       -0.01658   0.00000   0.01543   0.00000   0.00000
 117       11D-1        0.00000   0.01543   0.00000   0.00000   0.00000
 118       11D+2        0.00000   0.00000   0.00000   0.00000  -0.00000
 119       11D-2        0.00000   0.00000   0.00000   0.00000   0.00000
 120       12D 0        0.00000   0.00000   0.00000  -0.01637  -0.05889
 121       12D+1       -0.00641   0.00000   0.00948   0.00000   0.00000
 122       12D-1        0.00000   0.00948   0.00000   0.00000   0.00000
 123       12D+2        0.00000   0.00000   0.00000   0.00000  -0.00000
 124       12D-2        0.00000   0.00000   0.00000   0.00000   0.00000
 125       13F 0        0.00000   0.00000   0.00000  -0.00108  -0.00172
 126       13F+1       -0.00312   0.00000   0.00249   0.00000   0.00000
 127       13F-1        0.00000   0.00249   0.00000   0.00000   0.00000
 128       13F+2        0.00000   0.00000   0.00000  -0.00000   0.00000
 129       13F-2        0.00000   0.00000   0.00000   0.00000   0.00000
 130       13F+3        0.00000   0.00000  -0.00000   0.00000   0.00000
 131       13F-3        0.00000   0.00000   0.00000   0.00000   0.00000
 132       14F 0        0.00000   0.00000   0.00000   0.00007  -0.01380
 133       14F+1       -0.00319   0.00000   0.00139   0.00000   0.00000
 134       14F-1        0.00000   0.00139   0.00000   0.00000   0.00000
 135       14F+2        0.00000   0.00000   0.00000   0.00000  -0.00000
 136       14F-2        0.00000   0.00000   0.00000   0.00000   0.00000
 137       14F+3       -0.00000   0.00000   0.00000   0.00000   0.00000
 138       14F-3        0.00000  -0.00000   0.00000   0.00000   0.00000
                          16        17        18        19        20
                       (PIU)--V  (PIU)--V  (SGG)--V  (SGG)--V  (PIG)--V
     Eigenvalues --     0.04098   0.04098   0.07674   0.10958   0.11451
   1 1   C  1S          0.00000   0.00000   0.08160   0.04889   0.00000
   2        2S          0.00000   0.00000  -0.19671  -0.24070   0.00000
   3        3S          0.00000   0.00000  -0.07996  -0.11205   0.00000
   4        4S          0.00000   0.00000   3.17740  -0.68920   0.00000
   5        5S          0.00000   0.00000   5.08998   2.01000   0.00000
   6        6PX         0.00000  -0.08552   0.00000   0.00000   0.00000
   7        6PY        -0.08552   0.00000   0.00000   0.00000   0.00000
   8        6PZ         0.00000   0.00000   0.00000   0.00000   0.00000
   9        7PX         0.00000  -0.15245   0.00000   0.00000   0.00000
  10        7PY        -0.15245   0.00000   0.00000   0.00000   0.00000
  11        7PZ         0.00000   0.00000   0.00000   0.00000   0.00000
  12        8PX         0.00000  -0.28294   0.00000   0.00000   0.00000
  13        8PY        -0.28294   0.00000   0.00000   0.00000   0.00000
  14        8PZ         0.00000   0.00000   0.00000   0.00000   0.00000
  15        9PX         0.00000   1.53024   0.00000   0.00000   0.00000
  16        9PY         1.53024   0.00000   0.00000   0.00000   0.00000
  17        9PZ         0.00000   0.00000   0.00000   0.00000   0.00000
  18       10D 0        0.00000   0.00000   0.03689   0.01506   0.00000
  19       10D+1        0.00000   0.00000   0.00000   0.00000   0.00000
  20       10D-1        0.00000   0.00000   0.00000   0.00000  -0.00497
  21       10D+2        0.00000   0.00000   0.00000  -0.00000   0.00000
  22       10D-2        0.00000   0.00000   0.00000   0.00000   0.00000
  23       11D 0        0.00000   0.00000   0.37833   0.12064   0.00000
  24       11D+1        0.00000   0.00000   0.00000   0.00000   0.00000
  25       11D-1        0.00000   0.00000   0.00000   0.00000  -0.27416
  26       11D+2        0.00000   0.00000   0.00000   0.00000   0.00000
  27       11D-2        0.00000   0.00000   0.00000   0.00000   0.00000
  28       12D 0        0.00000   0.00000   0.65558   0.93463   0.00000
  29       12D+1        0.00000   0.00000   0.00000   0.00000   0.00000
  30       12D-1        0.00000   0.00000   0.00000   0.00000  -0.99895
  31       12D+2        0.00000   0.00000   0.00000   0.00000   0.00000
  32       12D-2        0.00000   0.00000   0.00000   0.00000   0.00000
  33       13F 0        0.00000   0.00000   0.00000   0.00000   0.00000
  34       13F+1        0.00000  -0.00449   0.00000   0.00000   0.00000
  35       13F-1       -0.00449   0.00000   0.00000   0.00000   0.00000
  36       13F+2        0.00000   0.00000   0.00000   0.00000   0.00000
  37       13F-2        0.00000   0.00000   0.00000   0.00000   0.00000
  38       13F+3        0.00000   0.00000   0.00000   0.00000   0.00000
  39       13F-3       -0.00000   0.00000   0.00000   0.00000   0.00000
  40       14F 0        0.00000   0.00000   0.00000   0.00000   0.00000
  41       14F+1        0.00000  -0.07039   0.00000   0.00000   0.00000
  42       14F-1       -0.07039   0.00000   0.00000   0.00000   0.00000
  43       14F+2        0.00000   0.00000   0.00000   0.00000   0.00000
  44       14F-2        0.00000   0.00000   0.00000   0.00000   0.00000
  45       14F+3        0.00000  -0.00000   0.00000   0.00000   0.00000
  46       14F-3        0.00000   0.00000   0.00000   0.00000   0.00000
  47 2   O  1S          0.00000   0.00000  -0.02959  -0.02092   0.00000
  48        2S          0.00000   0.00000   0.11423   0.07947   0.00000
  49        3S          0.00000   0.00000   0.03856   0.02668   0.00000
  50        4S          0.00000   0.00000  -0.62871  -0.35865   0.00000
  51        5S          0.00000   0.00000  -3.68374  -1.14551   0.00000
  52        6PX         0.00000  -0.02285   0.00000   0.00000   0.00000
  53        6PY        -0.02285   0.00000   0.00000   0.00000  -0.05819
  54        6PZ         0.00000   0.00000  -0.16177  -0.02030   0.00000
  55        7PX         0.00000  -0.02863   0.00000   0.00000   0.00000
  56        7PY        -0.02863   0.00000   0.00000   0.00000  -0.09353
  57        7PZ         0.00000   0.00000  -0.16505   0.01428   0.00000
  58        8PX         0.00000   0.12537   0.00000   0.00000   0.00000
  59        8PY         0.12537   0.00000   0.00000   0.00000   0.34855
  60        8PZ         0.00000   0.00000   0.38744  -0.03854   0.00000
  61        9PX         0.00000  -0.28836   0.00000   0.00000   0.00000
  62        9PY        -0.28836   0.00000   0.00000   0.00000   1.68775
  63        9PZ         0.00000   0.00000   0.90042  -1.13641   0.00000
  64       10D 0        0.00000   0.00000   0.00107  -0.00139   0.00000
  65       10D+1        0.00000   0.00371   0.00000   0.00000   0.00000
  66       10D-1        0.00371   0.00000   0.00000   0.00000   0.00318
  67       10D+2        0.00000   0.00000   0.00000  -0.00000   0.00000
  68       10D-2        0.00000   0.00000   0.00000   0.00000   0.00000
  69       11D 0        0.00000   0.00000  -0.01665  -0.03554   0.00000
  70       11D+1        0.00000  -0.00559   0.00000   0.00000   0.00000
  71       11D-1       -0.00559   0.00000   0.00000   0.00000  -0.00253
  72       11D+2        0.00000   0.00000   0.00000   0.00000   0.00000
  73       11D-2        0.00000   0.00000   0.00000   0.00000   0.00000
  74       12D 0        0.00000   0.00000  -0.13642   0.10011   0.00000
  75       12D+1        0.00000  -0.02585   0.00000   0.00000   0.00000
  76       12D-1       -0.02585   0.00000   0.00000   0.00000  -0.24625
  77       12D+2        0.00000   0.00000  -0.00000  -0.00000   0.00000
  78       12D-2        0.00000   0.00000   0.00000   0.00000   0.00000
  79       13F 0        0.00000   0.00000   0.00001   0.00338   0.00000
  80       13F+1        0.00000  -0.00111   0.00000   0.00000   0.00000
  81       13F-1       -0.00111   0.00000   0.00000   0.00000  -0.00588
  82       13F+2        0.00000   0.00000  -0.00000  -0.00000   0.00000
  83       13F-2        0.00000   0.00000   0.00000   0.00000   0.00000
  84       13F+3        0.00000  -0.00000   0.00000   0.00000   0.00000
  85       13F-3        0.00000   0.00000   0.00000   0.00000   0.00000
  86       14F 0        0.00000   0.00000  -0.00165  -0.00975   0.00000
  87       14F+1        0.00000   0.00282   0.00000   0.00000   0.00000
  88       14F-1        0.00282   0.00000   0.00000   0.00000   0.04157
  89       14F+2        0.00000   0.00000  -0.00000   0.00000   0.00000
  90       14F-2        0.00000   0.00000   0.00000   0.00000   0.00000
  91       14F+3        0.00000   0.00000   0.00000   0.00000   0.00000
  92       14F-3       -0.00000   0.00000   0.00000   0.00000  -0.00000
  93 3   O  1S          0.00000   0.00000  -0.02959  -0.02092   0.00000
  94        2S          0.00000   0.00000   0.11423   0.07947   0.00000
  95        3S          0.00000   0.00000   0.03856   0.02668   0.00000
  96        4S          0.00000   0.00000  -0.62871  -0.35865   0.00000
  97        5S          0.00000   0.00000  -3.68374  -1.14551   0.00000
  98        6PX         0.00000  -0.02285   0.00000   0.00000   0.00000
  99        6PY        -0.02285   0.00000   0.00000   0.00000   0.05819
 100        6PZ         0.00000   0.00000   0.16177   0.02030   0.00000
 101        7PX         0.00000  -0.02863   0.00000   0.00000   0.00000
 102        7PY        -0.02863   0.00000   0.00000   0.00000   0.09353
 103        7PZ         0.00000   0.00000   0.16505  -0.01428   0.00000
 104        8PX         0.00000   0.12537   0.00000   0.00000   0.00000
 105        8PY         0.12537   0.00000   0.00000   0.00000  -0.34855
 106        8PZ         0.00000   0.00000  -0.38744   0.03854   0.00000
 107        9PX         0.00000  -0.28836   0.00000   0.00000   0.00000
 108        9PY        -0.28836   0.00000   0.00000   0.00000  -1.68775
 109        9PZ         0.00000   0.00000  -0.90042   1.13641   0.00000
 110       10D 0        0.00000   0.00000   0.00107  -0.00139   0.00000
 111       10D+1        0.00000  -0.00371   0.00000   0.00000   0.00000
 112       10D-1       -0.00371   0.00000   0.00000   0.00000   0.00318
 113       10D+2        0.00000   0.00000   0.00000  -0.00000   0.00000
 114       10D-2        0.00000   0.00000   0.00000   0.00000   0.00000
 115       11D 0        0.00000   0.00000  -0.01665  -0.03554   0.00000
 116       11D+1        0.00000   0.00559   0.00000   0.00000   0.00000
 117       11D-1        0.00559   0.00000   0.00000   0.00000  -0.00253
 118       11D+2        0.00000   0.00000   0.00000   0.00000   0.00000
 119       11D-2        0.00000   0.00000   0.00000   0.00000   0.00000
 120       12D 0        0.00000   0.00000  -0.13642   0.10011   0.00000
 121       12D+1        0.00000   0.02585   0.00000   0.00000   0.00000
 122       12D-1        0.02585   0.00000   0.00000   0.00000  -0.24625
 123       12D+2        0.00000   0.00000  -0.00000  -0.00000   0.00000
 124       12D-2        0.00000   0.00000   0.00000   0.00000   0.00000
 125       13F 0        0.00000   0.00000  -0.00001  -0.00338   0.00000
 126       13F+1        0.00000  -0.00111   0.00000   0.00000   0.00000
 127       13F-1       -0.00111   0.00000   0.00000   0.00000   0.00588
 128       13F+2        0.00000   0.00000   0.00000   0.00000   0.00000
 129       13F-2        0.00000   0.00000   0.00000   0.00000   0.00000
 130       13F+3        0.00000  -0.00000   0.00000   0.00000   0.00000
 131       13F-3        0.00000   0.00000   0.00000   0.00000  -0.00000
 132       14F 0        0.00000   0.00000   0.00165   0.00975   0.00000
 133       14F+1        0.00000   0.00282   0.00000   0.00000   0.00000
 134       14F-1        0.00282   0.00000   0.00000   0.00000  -0.04157
 135       14F+2        0.00000   0.00000   0.00000  -0.00000   0.00000
 136       14F-2        0.00000   0.00000   0.00000   0.00000   0.00000
 137       14F+3        0.00000   0.00000   0.00000   0.00000   0.00000
 138       14F-3       -0.00000   0.00000   0.00000   0.00000   0.00000
                          21        22        23        24        25
                       (PIG)--V  (SGU)--V  (PIU)--V  (PIU)--V  (DLTG)--
     Eigenvalues --     0.11451   0.17133   0.18318   0.18318   0.19053
   1 1   C  1S          0.00000   0.00000   0.00000   0.00000  -0.00000
   2        2S          0.00000   0.00000   0.00000   0.00000   0.00000
   3        3S          0.00000   0.00000   0.00000   0.00000   0.00000
   4        4S          0.00000   0.00000   0.00000   0.00000  -0.00000
   5        5S          0.00000   0.00000   0.00000   0.00000  -0.00000
   6        6PX         0.00000   0.00000   0.00000   0.03665   0.00000
   7        6PY         0.00000   0.00000   0.03665   0.00000   0.00000
   8        6PZ         0.00000  -0.03546   0.00000   0.00000   0.00000
   9        7PX         0.00000   0.00000   0.00000   0.09554   0.00000
  10        7PY         0.00000   0.00000   0.09554   0.00000   0.00000
  11        7PZ         0.00000  -0.22172   0.00000   0.00000   0.00000
  12        8PX         0.00000   0.00000   0.00000   0.95928   0.00000
  13        8PY         0.00000   0.00000   0.95928   0.00000   0.00000
  14        8PZ         0.00000  -2.91561   0.00000   0.00000   0.00000
  15        9PX         0.00000   0.00000   0.00000   2.93142   0.00000
  16        9PY         0.00000   0.00000   2.93142   0.00000   0.00000
  17        9PZ         0.00000   2.20746   0.00000   0.00000   0.00000
  18       10D 0        0.00000   0.00000   0.00000   0.00000   0.00000
  19       10D+1       -0.00497   0.00000   0.00000   0.00000   0.00000
  20       10D-1        0.00000   0.00000   0.00000   0.00000   0.00000
  21       10D+2        0.00000   0.00000   0.00000   0.00000   0.03471
  22       10D-2        0.00000   0.00000   0.00000   0.00000   0.00000
  23       11D 0        0.00000   0.00000   0.00000   0.00000  -0.00000
  24       11D+1       -0.27416   0.00000   0.00000   0.00000   0.00000
  25       11D-1        0.00000   0.00000   0.00000   0.00000   0.00000
  26       11D+2        0.00000   0.00000   0.00000   0.00000  -0.02273
  27       11D-2        0.00000   0.00000   0.00000   0.00000   0.00000
  28       12D 0        0.00000   0.00000   0.00000   0.00000  -0.00000
  29       12D+1       -0.99895   0.00000   0.00000   0.00000   0.00000
  30       12D-1        0.00000   0.00000   0.00000   0.00000   0.00000
  31       12D+2        0.00000   0.00000   0.00000   0.00000   1.01909
  32       12D-2        0.00000   0.00000   0.00000   0.00000   0.00000
  33       13F 0        0.00000  -0.00370   0.00000   0.00000   0.00000
  34       13F+1        0.00000   0.00000   0.00000   0.00260   0.00000
  35       13F-1        0.00000   0.00000   0.00260   0.00000   0.00000
  36       13F+2        0.00000   0.00000   0.00000   0.00000   0.00000
  37       13F-2        0.00000   0.00000   0.00000   0.00000   0.00000
  38       13F+3        0.00000   0.00000   0.00000  -0.00000   0.00000
  39       13F-3        0.00000   0.00000   0.00000   0.00000   0.00000
  40       14F 0        0.00000  -0.20230   0.00000   0.00000   0.00000
  41       14F+1        0.00000   0.00000   0.00000   0.07341   0.00000
  42       14F-1        0.00000   0.00000   0.07341   0.00000   0.00000
  43       14F+2        0.00000   0.00000   0.00000   0.00000   0.00000
  44       14F-2        0.00000   0.00000   0.00000   0.00000   0.00000
  45       14F+3        0.00000   0.00000   0.00000   0.00000   0.00000
  46       14F-3        0.00000   0.00000  -0.00000   0.00000   0.00000
  47 2   O  1S          0.00000   0.00001   0.00000   0.00000  -0.00000
  48        2S          0.00000  -0.00942   0.00000   0.00000  -0.00000
  49        3S          0.00000  -0.00292   0.00000   0.00000  -0.00000
  50        4S          0.00000   0.97122   0.00000   0.00000   0.00000
  51        5S          0.00000   3.37809   0.00000   0.00000   0.00000
  52        6PX        -0.05819   0.00000   0.00000   0.07929   0.00000
  53        6PY         0.00000   0.00000   0.07929   0.00000   0.00000
  54        6PZ         0.00000   0.01480   0.00000   0.00000   0.00000
  55        7PX        -0.09353   0.00000   0.00000   0.07728   0.00000
  56        7PY         0.00000   0.00000   0.07728   0.00000   0.00000
  57        7PZ         0.00000  -0.02387   0.00000   0.00000   0.00000
  58        8PX         0.34855   0.00000   0.00000   0.01961   0.00000
  59        8PY         0.00000   0.00000   0.01961   0.00000   0.00000
  60        8PZ         0.00000  -0.33504   0.00000   0.00000  -0.00000
  61        9PX         1.68775   0.00000   0.00000  -2.29850   0.00000
  62        9PY         0.00000   0.00000  -2.29850   0.00000   0.00000
  63        9PZ         0.00000  -3.30223   0.00000   0.00000   0.00000
  64       10D 0        0.00000  -0.00353   0.00000   0.00000   0.00000
  65       10D+1        0.00318   0.00000   0.00000  -0.00070   0.00000
  66       10D-1        0.00000   0.00000  -0.00070   0.00000   0.00000
  67       10D+2        0.00000   0.00000   0.00000   0.00000   0.00262
  68       10D-2        0.00000   0.00000   0.00000   0.00000   0.00000
  69       11D 0        0.00000  -0.00284   0.00000   0.00000   0.00000
  70       11D+1       -0.00253   0.00000   0.00000  -0.02163   0.00000
  71       11D-1        0.00000   0.00000  -0.02163   0.00000   0.00000
  72       11D+2        0.00000  -0.00000   0.00000   0.00000   0.02937
  73       11D-2        0.00000   0.00000   0.00000   0.00000   0.00000
  74       12D 0        0.00000   0.01770   0.00000   0.00000   0.00000
  75       12D+1       -0.24625   0.00000   0.00000   0.17328   0.00000
  76       12D-1        0.00000   0.00000   0.17328   0.00000   0.00000
  77       12D+2        0.00000  -0.00000   0.00000   0.00000  -0.02099
  78       12D-2        0.00000   0.00000   0.00000   0.00000   0.00000
  79       13F 0        0.00000   0.00099   0.00000   0.00000   0.00000
  80       13F+1       -0.00588   0.00000   0.00000   0.00415   0.00000
  81       13F-1        0.00000   0.00000   0.00415   0.00000   0.00000
  82       13F+2        0.00000  -0.00000   0.00000   0.00000  -0.00147
  83       13F-2        0.00000   0.00000   0.00000   0.00000   0.00000
  84       13F+3       -0.00000   0.00000   0.00000   0.00000   0.00000
  85       13F-3        0.00000   0.00000  -0.00000   0.00000   0.00000
  86       14F 0        0.00000  -0.01056   0.00000   0.00000   0.00000
  87       14F+1        0.04157   0.00000   0.00000  -0.01542   0.00000
  88       14F-1        0.00000   0.00000  -0.01542   0.00000   0.00000
  89       14F+2        0.00000   0.00000   0.00000   0.00000  -0.00503
  90       14F-2        0.00000   0.00000   0.00000   0.00000   0.00000
  91       14F+3        0.00000   0.00000   0.00000  -0.00000   0.00000
  92       14F-3        0.00000   0.00000   0.00000   0.00000   0.00000
  93 3   O  1S          0.00000  -0.00001   0.00000   0.00000  -0.00000
  94        2S          0.00000   0.00942   0.00000   0.00000  -0.00000
  95        3S          0.00000   0.00292   0.00000   0.00000  -0.00000
  96        4S          0.00000  -0.97122   0.00000   0.00000   0.00000
  97        5S          0.00000  -3.37809   0.00000   0.00000   0.00000
  98        6PX         0.05819   0.00000   0.00000   0.07929   0.00000
  99        6PY         0.00000   0.00000   0.07929   0.00000   0.00000
 100        6PZ         0.00000   0.01480   0.00000   0.00000  -0.00000
 101        7PX         0.09353   0.00000   0.00000   0.07728   0.00000
 102        7PY         0.00000   0.00000   0.07728   0.00000   0.00000
 103        7PZ         0.00000  -0.02387   0.00000   0.00000  -0.00000
 104        8PX        -0.34855   0.00000   0.00000   0.01961   0.00000
 105        8PY         0.00000   0.00000   0.01961   0.00000   0.00000
 106        8PZ         0.00000  -0.33504   0.00000   0.00000   0.00000
 107        9PX        -1.68775   0.00000   0.00000  -2.29850   0.00000
 108        9PY         0.00000   0.00000  -2.29850   0.00000   0.00000
 109        9PZ         0.00000  -3.30223   0.00000   0.00000  -0.00000
 110       10D 0        0.00000   0.00353   0.00000   0.00000   0.00000
 111       10D+1        0.00318   0.00000   0.00000   0.00070   0.00000
 112       10D-1        0.00000   0.00000   0.00070   0.00000   0.00000
 113       10D+2        0.00000  -0.00000   0.00000   0.00000   0.00262
 114       10D-2        0.00000   0.00000   0.00000   0.00000   0.00000
 115       11D 0        0.00000   0.00284   0.00000   0.00000   0.00000
 116       11D+1       -0.00253   0.00000   0.00000   0.02163   0.00000
 117       11D-1        0.00000   0.00000   0.02163   0.00000   0.00000
 118       11D+2        0.00000   0.00000   0.00000   0.00000   0.02937
 119       11D-2        0.00000   0.00000   0.00000   0.00000   0.00000
 120       12D 0        0.00000  -0.01770   0.00000   0.00000   0.00000
 121       12D+1       -0.24625   0.00000   0.00000  -0.17328   0.00000
 122       12D-1        0.00000   0.00000  -0.17328   0.00000   0.00000
 123       12D+2        0.00000   0.00000   0.00000   0.00000  -0.02099
 124       12D-2        0.00000   0.00000   0.00000   0.00000   0.00000
 125       13F 0        0.00000   0.00099   0.00000   0.00000  -0.00000
 126       13F+1        0.00588   0.00000   0.00000   0.00415   0.00000
 127       13F-1        0.00000   0.00000   0.00415   0.00000   0.00000
 128       13F+2        0.00000  -0.00000   0.00000   0.00000   0.00147
 129       13F-2        0.00000   0.00000   0.00000   0.00000   0.00000
 130       13F+3        0.00000   0.00000   0.00000   0.00000   0.00000
 131       13F-3        0.00000   0.00000  -0.00000   0.00000   0.00000
 132       14F 0        0.00000  -0.01056   0.00000   0.00000  -0.00000
 133       14F+1       -0.04157   0.00000   0.00000  -0.01542   0.00000
 134       14F-1        0.00000   0.00000  -0.01542   0.00000   0.00000
 135       14F+2        0.00000   0.00000   0.00000   0.00000   0.00503
 136       14F-2        0.00000   0.00000   0.00000   0.00000   0.00000
 137       14F+3       -0.00000   0.00000   0.00000  -0.00000   0.00000
 138       14F-3        0.00000   0.00000   0.00000   0.00000   0.00000
                          26        27        28        29        30
                       (DLTG)--  (SGU)--V  (SGG)--V  (PIU)--V  (PIU)--V
     Eigenvalues --     0.19053   0.21822   0.23708   0.34158   0.34158
   1 1   C  1S          0.00000   0.00000  -0.11089   0.00000   0.00000
   2        2S          0.00000   0.00000   0.30193   0.00000   0.00000
   3        3S          0.00000   0.00000   0.01813   0.00000   0.00000
   4        4S          0.00000   0.00000   8.25643   0.00000   0.00000
   5        5S          0.00000   0.00000   6.99618   0.00000   0.00000
   6        6PX         0.00000   0.00000   0.00000   0.00000  -0.26215
   7        6PY         0.00000   0.00000   0.00000  -0.26215   0.00000
   8        6PZ         0.00000   0.06397   0.00000   0.00000   0.00000
   9        7PX         0.00000   0.00000   0.00000   0.00000  -0.02123
  10        7PY         0.00000   0.00000   0.00000  -0.02123   0.00000
  11        7PZ         0.00000  -0.87028   0.00000   0.00000   0.00000
  12        8PX         0.00000   0.00000   0.00000   0.00000   4.63802
  13        8PY         0.00000   0.00000   0.00000   4.63802   0.00000
  14        8PZ         0.00000  -3.59665   0.00000   0.00000   0.00000
  15        9PX         0.00000   0.00000   0.00000   0.00000   0.48976
  16        9PY         0.00000   0.00000   0.00000   0.48976   0.00000
  17        9PZ         0.00000  -2.74424   0.00000   0.00000   0.00000
  18       10D 0        0.00000   0.00000  -0.04229   0.00000   0.00000
  19       10D+1        0.00000   0.00000   0.00000   0.00000   0.00000
  20       10D-1        0.00000   0.00000   0.00000   0.00000   0.00000
  21       10D+2        0.00000   0.00000   0.00000   0.00000   0.00000
  22       10D-2        0.03471   0.00000   0.00000   0.00000   0.00000
  23       11D 0        0.00000   0.00000   0.57326   0.00000   0.00000
  24       11D+1        0.00000   0.00000   0.00000   0.00000   0.00000
  25       11D-1        0.00000   0.00000   0.00000   0.00000   0.00000
  26       11D+2        0.00000   0.00000   0.00000   0.00000   0.00000
  27       11D-2       -0.02273   0.00000   0.00000   0.00000   0.00000
  28       12D 0        0.00000   0.00000   1.57189   0.00000   0.00000
  29       12D+1        0.00000   0.00000   0.00000   0.00000   0.00000
  30       12D-1        0.00000   0.00000   0.00000   0.00000   0.00000
  31       12D+2        0.00000   0.00000   0.00000   0.00000   0.00000
  32       12D-2        1.01909   0.00000   0.00000   0.00000   0.00000
  33       13F 0        0.00000  -0.07512   0.00000   0.00000   0.00000
  34       13F+1        0.00000   0.00000   0.00000   0.00000  -0.01204
  35       13F-1        0.00000   0.00000   0.00000  -0.01204   0.00000
  36       13F+2        0.00000   0.00000   0.00000   0.00000   0.00000
  37       13F-2        0.00000   0.00000   0.00000   0.00000   0.00000
  38       13F+3        0.00000   0.00000   0.00000   0.00000   0.00000
  39       13F-3        0.00000   0.00000   0.00000  -0.00000   0.00000
  40       14F 0        0.00000  -0.06313   0.00000   0.00000   0.00000
  41       14F+1        0.00000   0.00000   0.00000   0.00000   0.82213
  42       14F-1        0.00000   0.00000   0.00000   0.82213   0.00000
  43       14F+2        0.00000  -0.00000   0.00000   0.00000   0.00000
  44       14F-2        0.00000   0.00000   0.00000   0.00000   0.00000
  45       14F+3        0.00000   0.00000   0.00000   0.00000  -0.00000
  46       14F-3        0.00000   0.00000   0.00000   0.00000   0.00000
  47 2   O  1S          0.00000   0.04258   0.00556   0.00000   0.00000
  48        2S          0.00000  -0.16047   0.02648   0.00000   0.00000
  49        3S          0.00000  -0.07354   0.01043   0.00000   0.00000
  50        4S          0.00000   0.90575  -1.68211   0.00000   0.00000
  51        5S          0.00000   6.57631  -6.83904   0.00000   0.00000
  52        6PX         0.00000   0.00000   0.00000   0.00000   0.00502
  53        6PY         0.00000   0.00000   0.00000   0.00502   0.00000
  54        6PZ         0.00000  -0.02975   0.14609   0.00000   0.00000
  55        7PX         0.00000   0.00000   0.00000   0.00000  -0.03479
  56        7PY         0.00000   0.00000   0.00000  -0.03479   0.00000
  57        7PZ         0.00000  -0.12137   0.26340   0.00000   0.00000
  58        8PX         0.00000   0.00000   0.00000   0.00000  -1.61684
  59        8PY         0.00000   0.00000   0.00000  -1.61684   0.00000
  60        8PZ         0.00000  -1.22503   1.28081   0.00000   0.00000
  61        9PX         0.00000   0.00000   0.00000   0.00000  -1.29507
  62        9PY         0.00000   0.00000   0.00000  -1.29507   0.00000
  63        9PZ         0.00000  -0.60630   0.89077   0.00000   0.00000
[...]
         NMat0=    1 NMatS0=      1 NMatT0=    0 NMatD0=    1 NMtDS0=    0 NMtDT0=    0
 Petite list used in FoFCou.
 Leave Link  703 at Fri Sep  6 10:19:30 2024, MaxMem=  1073741824 cpu:              16.1 elap:               2.1
 (Enter /Users/asuyarger/Applications/G16/g16/l716.exe)
 Dipole        =-9.16333858D-17 7.94446102D-34 0.00000000D+00
 Polarizability= 1.27491299D+01 4.52422687D-19 1.27491299D+01
                -1.17666170D-15-3.60016126D-31 2.60222927D+01
 HyperPolar    = 1.96482887D-11-4.54740717D-12 1.16153799D-11
                -1.17797245D-11 6.14406097D-12-6.22511114D-12
                -2.88863387D-12-1.52629605D-11-7.58970596D-12
                 7.76662261D-12
 Full mass-weighted force constant matrix:
 Low frequencies ---   -0.0009   -0.0009    0.0013    0.8785    0.8785  673.6589
 Low frequencies ---  673.6589 1369.2043 2400.4731
 Diagonal vibrational polarizability:
        1.7966347       1.7966347       3.1560408
 Diagonal vibrational hyperpolarizability:
       -0.0000000      -0.0000000      -0.0000000
 Harmonic frequencies (cm**-1), IR intensities (KM/Mole), Raman scattering
 activities (A**4/AMU), depolarization ratios for plane and unpolarized
 incident light, reduced masses (AMU), force constants (mDyne/A),
 and normal coordinates:
                      1                      2                      3
                     PIU                    PIU                    SGG
 Frequencies --    673.6589               673.6589              1369.2043
 Red. masses --     12.8774                12.8774                15.9949
 Frc consts  --      3.4432                 3.4432                17.6672
 IR Inten    --     30.2975                30.2975                 0.0000
 Raman Activ --      0.0000                 0.0000                21.1051
 Depolar (P) --      0.0000                 0.0000                 0.1068
 Depolar (U) --      0.0000                 0.0000                 0.1931
  Atom  AN      X      Y      Z        X      Y      Z        X      Y      Z
     1   6     0.16   0.87  -0.00     0.87  -0.16  -0.00    -0.00  -0.00   0.00
     2   8    -0.06  -0.33   0.00    -0.33   0.06   0.00     0.00   0.00   0.71
     3   8    -0.06  -0.33  -0.00    -0.33   0.06  -0.00     0.00   0.00  -0.71
                      4
                     SGU
 Frequencies --   2400.4731
 Red. masses --     12.8774
 Frc consts  --     43.7191
 IR Inten    --    675.7766
 Raman Activ --      0.0000
 Depolar (P) --      0.0000
 Depolar (U) --      0.0000
  Atom  AN      X      Y      Z
     1   6     0.00   0.00   0.88
     2   8    -0.00  -0.00  -0.33
     3   8    -0.00  -0.00  -0.33

 -------------------
 - Thermochemistry -
 -------------------
 Temperature   298.150 Kelvin.  Pressure   1.00000 Atm.
 Atom     1 has atomic number  6 and mass  12.00000
 Atom     2 has atomic number  8 and mass  15.99491
 Atom     3 has atomic number  8 and mass  15.99491
 Molecular mass:    43.98983 amu.
 Principal axes and moments of inertia in atomic units:
                           1         2         3
     Eigenvalues --     0.00000 153.84270 153.84270
           X           -0.00000   1.00000  -0.00000
           Y            0.00000   0.00000   1.00000
           Z            1.00000   0.00000  -0.00000
 This molecule is a prolate symmetric top.
 Rotational symmetry number  2.
 Rotational temperature (Kelvin)      0.56300
 Rotational constant (GHZ):          11.731081
 Zero-point vibrational energy      30606.4 (Joules/Mol)
                                    7.31511 (Kcal/Mol)
 Vibrational temperatures:    969.24   969.24  1969.98  3453.75
          (Kelvin)
 
 Zero-point correction=                           0.011657 (Hartree/Particle)
 Thermal correction to Energy=                    0.014274
 Thermal correction to Enthalpy=                  0.015218
 Thermal correction to Gibbs Free Energy=        -0.009034
 Sum of electronic and zero-point Energies=           -188.651729
 Sum of electronic and thermal Energies=              -188.649113
 Sum of electronic and thermal Enthalpies=            -188.648169
 Sum of electronic and thermal Free Energies=         -188.672421
 
                     E (Thermal)             CV                S
                      KCal/Mol        Cal/Mol-Kelvin    Cal/Mol-Kelvin
 Total                    8.957              6.849             51.042
 Electronic               0.000              0.000              0.000
 Translational            0.889              2.981             37.270
 Rotational               0.592              1.987             13.074
 Vibrational              7.476              1.881              0.698
                       Q            Log10(Q)             Ln(Q)
 Total Bot       0.142979D+05          4.155272          9.567867
 Total V=0       0.329068D+10          9.517286         21.914361
 Vib (Bot)       0.470864D-05         -5.327105        -12.266112
 Vib (V=0)       0.108370D+01          0.034910          0.080383
 Electronic      0.100000D+01          0.000000          0.000000
 Translational   0.114679D+08          7.059482         16.255059
 Rotational      0.264785D+03          2.422894          5.578920
 
                                              CO2 DFT aug-cc-pVTZ Opt Freq - Full
  - NBO
                                                             IR Spectrum
 
     2                                                      1                                                                        
     4                                                      3                                    6                                   
     0                                                      6                                    7                                   
     0                                                      9                                    4                                   
 
     X                                                                                           X                                   
     X                                                                                           X                                   
     X                                                                                                                               
     X                                                                                                                               
     X                                                                                                                               
     X                                                                                                                               
     X                                                                                                                               
     X                                                                                                                               
     X                                                                                                                               
     X                                                                                                                               
     X                                                                                                                               
     X                                                                                                                               
     X                                                                                                                               
     X                                                                                                                               
     X                                                                                                                               
     X                                                                                                                               
     X                                                                                                                               
     X                                                                                                                               
     X                                                                                                                               
     X                                                                                                                               
 
 
                                              CO2 DFT aug-cc-pVTZ Opt Freq - Full
  - NBO
                                                            Raman Spectrum
 
     2                                                      1                                                                        
     4                                                      3                                    6                                   
     0                                                      6                                    7                                   
     0                                                      9                                    4                                   
 
                                                            X                                                                        
                                                            X                                                                        
                                                            X                                                                        
                                                            X                                                                        
                                                            X                                                                        
                                                            X                                                                        
                                                            X                                                                        
                                                            X                                                                        
                                                            X                                                                        
                                                            X                                                                        
                                                            X                                                                        
                                                            X                                                                        
                                                            X                                                                        
                                                            X                                                                        
                                                            X                                                                        
                                                            X                                                                        
                                                            X                                                                        
                                                            X                                                                        
                                                            X                                                                        
                                                            X                                                                        
 
 ***** Axes restored to original set *****
 -------------------------------------------------------------------
 Center     Atomic                   Forces (Hartrees/Bohr)
 Number     Number              X              Y              Z
 -------------------------------------------------------------------
      1        6           0.000000000    0.000000000   -0.000000000
      2        8           0.000000010    0.000000000   -0.000000000
      3        8          -0.000000010   -0.000000000    0.000000000
 -------------------------------------------------------------------
 Cartesian Forces:  Max     0.000000010 RMS     0.000000005
 Force constants in Cartesian coordinates: 
                1             2             3             4             5 
      1  0.190294D+01
      2  0.000000D+00  0.149869D+00
      3  0.000000D+00  0.000000D+00  0.149869D+00
      4 -0.951472D+00  0.000000D+00  0.000000D+00  0.104312D+01
      5  0.000000D+00 -0.749346D-01  0.000000D+00  0.000000D+00  0.374675D-01
      6  0.000000D+00  0.000000D+00 -0.749346D-01  0.000000D+00  0.000000D+00
      7 -0.951472D+00  0.000000D+00  0.000000D+00 -0.916517D-01  0.000000D+00
      8  0.000000D+00 -0.749346D-01  0.000000D+00  0.000000D+00  0.374671D-01
      9  0.000000D+00  0.000000D+00 -0.749346D-01  0.000000D+00  0.000000D+00
                6             7             8             9 
      6  0.374675D-01
      7  0.000000D+00  0.104312D+01
      8  0.000000D+00  0.000000D+00  0.374675D-01
      9  0.374671D-01  0.000000D+00  0.000000D+00  0.374675D-01
 FormGI is forming the generalized inverse of G from B-inverse, IUseBI=4.
 Force constants in internal coordinates: 
                1             2             3             4 
      1  0.104312D+01
      2  0.916517D-01  0.104312D+01
      3  0.000000D+00  0.000000D+00  0.180185D+00
      4  0.000000D+00  0.000000D+00  0.000000D+00  0.180185D+00
 Leave Link  716 at Fri Sep  6 10:19:30 2024, MaxMem=  1073741824 cpu:               0.1 elap:               0.0
 (Enter /Users/asuyarger/Applications/G16/g16/l103.exe)

 GradGradGradGradGradGradGradGradGradGradGradGradGradGradGradGradGradGrad
 Berny optimization.
 Red2BG is reusing G-inverse.
 Internal  Forces:  Max     0.000000010 RMS     0.000000007
 Search for a local minimum.
 Step number   1 out of a maximum of    2
 All quantities printed in internal units (Hartrees-Bohrs-Radians)
 Second derivative matrix not updated -- analytic derivatives used.
 The second derivative matrix:
                          R1        R2        A1        A2
           R1           1.04312
           R2           0.09165   1.04312
           A1           0.00000  -0.00000   0.18018
           A2           0.00000   0.00000  -0.00000   0.18018
 ITU=  0
     Eigenvalues ---    0.18018   0.18018   0.95147   1.13478
 Angle between quadratic step and forces=  90.00 degrees.
 Linear search not attempted -- first point.
 Iteration  1 RMS(Cart)=  0.00000001 RMS(Int)=  0.00000000
 ITry= 1 IFail=0 DXMaxC= 8.68D-09 DCOld= 1.00D+10 DXMaxT= 3.00D-01 DXLimC= 3.00D+00 Rises=F
 ClnCor:  largest displacement from symmetrization is 1.16D-14 for atom     1.
 Variable       Old X    -DE/DX   Delta X   Delta X   Delta X     New X
                                 (Linear)    (Quad)   (Total)
    R1        2.19297   0.00000   0.00000   0.00000   0.00000   2.19297
    R2        2.19297   0.00000   0.00000   0.00000   0.00000   2.19297
    A1        3.14159  -0.00000   0.00000  -0.00000   0.00000   3.14159
    A2        3.14159  -0.00000   0.00000  -0.00000   0.00000   3.14159
         Item               Value     Threshold  Converged?
 Maximum Force            0.000000     0.000015     YES
 RMS     Force            0.000000     0.000010     YES
 Maximum Displacement     0.000000     0.000060     YES
 RMS     Displacement     0.000000     0.000040     YES
 Predicted change in Energy=-8.551947D-17
 Optimization completed.
    -- Stationary point found.
                           ----------------------------
                           !   Optimized Parameters   !
                           ! (Angstroms and Degrees)  !
 --------------------------                            --------------------------
 ! Name  Definition              Value          Derivative Info.                !
 --------------------------------------------------------------------------------
 ! R1    R(1,2)                  1.1605         -DE/DX =    0.0                 !
 ! R2    R(1,3)                  1.1605         -DE/DX =    0.0                 !
 ! A1    L(2,1,3,-2,-1)        180.0            -DE/DX =    0.0                 !
 ! A2    L(2,1,3,-3,-2)        180.0            -DE/DX =    0.0                 !
 --------------------------------------------------------------------------------
 GradGradGradGradGradGradGradGradGradGradGradGradGradGradGradGradGradGrad

 Leave Link  103 at Fri Sep  6 10:19:30 2024, MaxMem=  1073741824 cpu:               0.0 elap:               0.0
 (Enter /Users/asuyarger/Applications/G16/g16/l9999.exe)
 Dipole is zero, so no output in dipole orientation.

 ----------------------------------------------------------------------

 Electric dipole moment (input orientation):
 (Debye = 10**-18 statcoulomb cm , SI units = C m)
                  (au)            (Debye)         (10**-30 SI)
   Tot        0.000000D+00      0.000000D+00      0.000000D+00
   x          0.000000D+00      0.000000D+00      0.000000D+00
   y          0.000000D+00      0.000000D+00      0.000000D+00
   z          0.000000D+00      0.000000D+00      0.000000D+00

 Dipole polarizability, Alpha (input orientation).
 (esu units = cm**3 , SI units = C**2 m**2 J**-1)
 Alpha(0;0):
               (au)            (10**-24 esu)      (10**-40 SI)
   iso        0.171735D+02      0.254485D+01      0.283153D+01
   aniso      0.132732D+02      0.196688D+01      0.218845D+01
   xx         0.260223D+02      0.385611D+01      0.429050D+01
   yx         0.000000D+00      0.000000D+00      0.000000D+00
   yy         0.127491D+02      0.188923D+01      0.210205D+01
   zx         0.000000D+00      0.000000D+00      0.000000D+00
   zy         0.000000D+00      0.000000D+00      0.000000D+00
   zz         0.127491D+02      0.188923D+01      0.210205D+01

 ----------------------------------------------------------------------
 1\1\GINC-JEFFSMACSTUDIO\Freq\RB3LYP\Aug-CC-pVTZ\C1O2\ROOT\06-Sep-2024\
 0\\#P Geom=AllCheck Guess=TCheck SCRF=Check GenChk RB3LYP/Aug-CC-pVTZ 
 Freq\\CO2 DFT aug-cc-pVTZ Opt Freq - Full - NBO\\0,1\C,2.92043382,0.67
 811934,0.\O,4.0809030391,0.67811934,0.\O,1.7599646009,0.67811934,0.\\V
 ersion=EM64M-G16RevA.03\State=1-SGG\HF=-188.6633867\RMSD=7.525e-10\RMS
 F=4.644e-09\ZeroPoint=0.0116574\Thermal=0.0142738\Dipole=0.,0.,0.\Dipo
 leDeriv=2.4594976,0.,0.,0.,0.5207727,0.,0.,0.,0.5207727,-1.2297488,0.,
 0.,0.,-0.2603863,0.,0.,0.,-0.2603863,-1.2297488,0.,0.,0.,-0.2603863,0.
 ,0.,0.,-0.2603863\Polar=26.0222927,0.,12.7491299,0.,0.,12.7491299\Pola
 rDeriv=0.,0.,0.,0.,0.,0.,0.,0.,0.,0.,0.,0.,0.,0.,0.,0.,0.,0.,11.635635
 1,0.,3.3136439,0.,0.,3.3136439,0.,3.0263603,0.,0.,0.,0.,0.,0.,0.,3.026
 3603,0.,0.,-11.6356351,0.,-3.3136439,0.,0.,-3.3136439,0.,-3.0263603,0.
 ,0.,0.,0.,0.,0.,0.,-3.0263603,0.,0.\HyperPolar=0.,0.,0.,0.,0.,0.,0.,0.
 ,0.,0.\Quadrupole=-2.2336188,1.1168094,1.1168094,0.,0.,0.\PG=D*H [O(C1
 ),C*(O1.O1)]\NImag=0\\1.90294400,0.,0.14986922,0.,0.,0.14986922,-0.951
 47200,0.,0.,1.04312367,0.,-0.07493461,0.,0.,0.03746754,0.,0.,-0.074934
 61,0.,0.,0.03746754,-0.95147200,0.,0.,-0.09165167,0.,0.,1.04312367,0.,
 -0.07493461,0.,0.,0.03746707,0.,0.,0.03746754,0.,0.,-0.07493461,0.,0.,
 0.03746707,0.,0.,0.03746754\\0.,0.,0.,0.,0.,0.,0.,0.,0.\\\@


 WHEN IT COMES TO CASH FLOW, IT SEEMS LIKE THE TIDE IS ALWAYS GOING OUT.
 Job cpu time:       0 days  0 hours  0 minutes  9.5 seconds.
 Elapsed time:       0 days  0 hours  0 minutes  9.0 seconds.
 File lengths (MBytes):  RWF=     16 Int=      0 D2E=      0 Chk=      3 Scr=      1
 Normal termination of Gaussian 16 at Fri Sep  6 10:19:30 2024.
