 Entering Gaussian System, Link 0=g16
 Input=/Users/asuyarger/Downloads/CO2_PM6_Opt_Freq_Full_NBO.gjf
 Output=/Users/asuyarger/Downloads/CO2_PM6_Opt_Freq_Full_NBO.log
 Initial command:
 /Users/asuyarger/Applications/G16/g16/l1.exe "/Users/asuyarger/Applications/G16/scratch/Gau-88652.inp" -scrdir="/Users/asuyarger/Applications/G16/scratch/"
 Entering Link 1 = /Users/asuyarger/Applications/G16/g16/l1.exe PID=     88653.
  
 Copyright (c) 1988,1990,1992,1993,1995,1998,2003,2009,2016,
            Gaussian, Inc.  All Rights Reserved.
  
 This is part of the Gaussian(R) 16 program.  It is based on
 the Gaussian(R) 09 system (copyright 2009, Gaussian, Inc.),
 the Gaussian(R) 03 system (copyright 2003, Gaussian, Inc.),
 the Gaussian(R) 98 system (copyright 1998, Gaussian, Inc.),
 the Gaussian(R) 94 system (copyright 1995, Gaussian, Inc.),
 the Gaussian 92(TM) system (copyright 1992, Gaussian, Inc.),
 the Gaussian 90(TM) system (copyright 1990, Gaussian, Inc.),
 the Gaussian 88(TM) system (copyright 1988, Gaussian, Inc.),
 the Gaussian 86(TM) system (copyright 1986, Carnegie Mellon
 University), and the Gaussian 82(TM) system (copyright 1983,
 Carnegie Mellon University). Gaussian is a federally registered
 trademark of Gaussian, Inc.
  
 This software contains proprietary and confidential information,
 including trade secrets, belonging to Gaussian, Inc.
  
 This software is provided under written license and may be
 used, copied, transmitted, or stored only in accord with that
 written license.
  
 The following legend is applicable only to US Government
 contracts under FAR:
  
                    RESTRICTED RIGHTS LEGEND
  
 Use, reproduction and disclosure by the US Government is
 subject to restrictions as set forth in subparagraphs (a)
 and (c) of the Commercial Computer Software - Restricted
 Rights clause in FAR 52.227-19.
  
 Gaussian, Inc.
 340 Quinnipiac St., Bldg. 40, Wallingford CT 06492
  
  
 ---------------------------------------------------------------
 Warning -- This program may not be used in any manner that
 competes with the business of Gaussian, Inc. or will provide
 assistance to any competitor of Gaussian, Inc.  The licensee
 of this program is prohibited from giving any competitor of
 Gaussian, Inc. access to this program.  By using this program,
 the user acknowledges that Gaussian, Inc. is engaged in the
 business of creating and licensing software in the field of
 computational chemistry and represents and warrants to the
 licensee that it is not a competitor of Gaussian, Inc. and that
 it will not use this program in any manner prohibited above.
 ---------------------------------------------------------------
  

 Cite this work as:
 Gaussian 16, Revision A.03,
 M. J. Frisch, G. W. Trucks, H. B. Schlegel, G. E. Scuseria, 
 M. A. Robb, J. R. Cheeseman, G. Scalmani, V. Barone, 
 G. A. Petersson, H. Nakatsuji, X. Li, M. Caricato, A. V. Marenich, 
 J. Bloino, B. G. Janesko, R. Gomperts, B. Mennucci, H. P. Hratchian, 
 J. V. Ortiz, A. F. Izmaylov, J. L. Sonnenberg, D. Williams-Young, 
 F. Ding, F. Lipparini, F. Egidi, J. Goings, B. Peng, A. Petrone, 
 T. Henderson, D. Ranasinghe, V. G. Zakrzewski, J. Gao, N. Rega, 
 G. Zheng, W. Liang, M. Hada, M. Ehara, K. Toyota, R. Fukuda, 
 J. Hasegawa, M. Ishida, T. Nakajima, Y. Honda, O. Kitao, H. Nakai, 
 T. Vreven, K. Throssell, J. A. Montgomery, Jr., J. E. Peralta, 
 F. Ogliaro, M. J. Bearpark, J. J. Heyd, E. N. Brothers, K. N. Kudin, 
 V. N. Staroverov, T. A. Keith, R. Kobayashi, J. Normand, 
 K. Raghavachari, A. P. Rendell, J. C. Burant, S. S. Iyengar, 
 J. Tomasi, M. Cossi, J. M. Millam, M. Klene, C. Adamo, R. Cammi, 
 J. W. Ochterski, R. L. Martin, K. Morokuma, O. Farkas, 
 J. B. Foresman, and D. J. Fox, Gaussian, Inc., Wallingford CT, 2016.
 
 ******************************************
 Gaussian 16:  EM64M-G16RevA.03 25-Dec-2016
                 6-Sep-2024 
 ******************************************
 %chk=CO2_PM6_Opt_Freq_Full_NBO.chk
 ----------------------------------------------------------------------
 #p opt=tight freq=raman pm6 guess=save pop=(hirshfeld,full,nbo) geom=c
 onnectivity polar
 ----------------------------------------------------------------------
 1/7=10,18=20,19=15,26=1,38=1,57=2/1,3;
 2/9=110,12=2,17=6,18=5,40=1/2;
 3/5=2,25=1,41=3900000,71=1/1,2,3;
 4/35=1/1;
 5/5=2,35=1,38=5,98=1/2;
 6/7=3,28=1,40=1,79=1/1,7;
 7//1,2,3,16;
 1/7=10,18=20,19=15,26=1/3(2);
 2/9=110/2;
 99//99;
 2/9=110/2;
 3/5=2,25=1,41=3900000,71=1,135=20/1,2,3;
 4/5=5,16=3,35=1/1;
 5/5=2,35=1,38=5,98=1/2;
 7//1,2,3,16;
 1/7=10,18=20,19=15,26=1/3(-5);
 2/9=110/2;
 6/7=3,19=2,28=1,40=1,79=1/1,7;
 99/9=1/99;
 Leave Link    1 at Fri Sep  6 10:15:43 2024, MaxMem=           0 cpu:               0.0 elap:               0.0
 (Enter /Users/asuyarger/Applications/G16/g16/l101.exe)
 ----------------
 CO2 PM6 Opt Freq
 ----------------
 Symbolic Z-matrix:
 Charge =  0 Multiplicity = 1
 C                     2.92043   0.67812   0. 
 O                     4.17883   0.67812   0. 
 O                     1.66203   0.67812   0. 
 
 ITRead=  0  0  0
 MicOpt= -1 -1 -1
 NAtoms=      3 NQM=        3 NQMF=       0 NMMI=      0 NMMIF=      0
                NMic=       0 NMicF=      0.
                    Isotopes and Nuclear Properties:
 (Nuclear quadrupole moments (NQMom) in fm**2, nuclear magnetic moments (NMagM)
  in nuclear magnetons)

  Atom         1           2           3
 IAtWgt=          12          16          16
 AtmWgt=  12.0000000  15.9949146  15.9949146
 NucSpn=           0           0           0
 AtZEff=  -0.0000000  -0.0000000  -0.0000000
 NQMom=    0.0000000   0.0000000   0.0000000
 NMagM=    0.0000000   0.0000000   0.0000000
 AtZNuc=   6.0000000   8.0000000   8.0000000
 Leave Link  101 at Fri Sep  6 10:15:43 2024, MaxMem=   104857600 cpu:               0.1 elap:               0.1
 (Enter /Users/asuyarger/Applications/G16/g16/l103.exe)

 GradGradGradGradGradGradGradGradGradGradGradGradGradGradGradGradGradGrad
 Berny optimization.
 Initialization pass.
                           ----------------------------
                           !    Initial Parameters    !
                           ! (Angstroms and Degrees)  !
 --------------------------                            --------------------------
 ! Name  Definition              Value          Derivative Info.                !
 --------------------------------------------------------------------------------
 ! R1    R(1,2)                  1.2584         estimate D2E/DX2                !
 ! R2    R(1,3)                  1.2584         estimate D2E/DX2                !
 ! A1    L(2,1,3,-2,-1)        180.0            estimate D2E/DX2                !
 ! A2    L(2,1,3,-3,-2)        180.0            estimate D2E/DX2                !
 --------------------------------------------------------------------------------
 Trust Radius=3.00D-01 FncErr=1.00D-07 GrdErr=1.00D-07 EigMax=2.50D+02 EigMin=1.00D-04
 Number of steps in this run=     20 maximum allowed number of steps=    100.
 GradGradGradGradGradGradGradGradGradGradGradGradGradGradGradGradGradGrad

 Leave Link  103 at Fri Sep  6 10:15:43 2024, MaxMem=   104857600 cpu:               0.0 elap:               0.0
 (Enter /Users/asuyarger/Applications/G16/g16/l202.exe)
                          Input orientation:                          
 ---------------------------------------------------------------------
 Center     Atomic      Atomic             Coordinates (Angstroms)
 Number     Number       Type             X           Y           Z
 ---------------------------------------------------------------------
      1          6           0        2.920434    0.678119    0.000000
      2          8           0        4.178834    0.678119    0.000000
      3          8           0        1.662034    0.678119    0.000000
 ---------------------------------------------------------------------
                    Distance matrix (angstroms):
                    1          2          3
     1  C    0.000000
     2  O    1.258400   0.000000
     3  O    1.258400   2.516800   0.000000
 Stoichiometry    CO2
 Framework group  D*H[O(C),C*(O.O)]
 Deg. of freedom     1
 Full point group                 D*H     NOp   8
 Largest Abelian subgroup         D2H     NOp   8
 Largest concise Abelian subgroup C2      NOp   2
                         Standard orientation:                         
 ---------------------------------------------------------------------
 Center     Atomic      Atomic             Coordinates (Angstroms)
 Number     Number       Type             X           Y           Z
 ---------------------------------------------------------------------
      1          6           0        0.000000    0.000000    0.000000
      2          8           0        0.000000    0.000000    1.258400
      3          8           0        0.000000    0.000000   -1.258400
 ---------------------------------------------------------------------
 Rotational constants (GHZ):           0.0000000           9.9762623           9.9762623
 Leave Link  202 at Fri Sep  6 10:15:43 2024, MaxMem=   104857600 cpu:               0.0 elap:               0.0
 (Enter /Users/asuyarger/Applications/G16/g16/l301.exe)
 Standard basis: VSTO-6G (5D, 7F)
 Ernie: Thresh=  0.10000D-02 Tol=  0.10000D-05 Strict=F.
  NNHCO=     0 NNPyr=     0 NCTC=     0               EPep=         0.000000000
    EC=        21.496147391  ECS=         0.774708664   EG=         0.051199574
   EHC=         0.000445698  EAt=       -25.337042388  AtH=         0.462157166
 EPDDG=         0.000000000  ECC=        22.322501328 EAtT=        25.799199554
 There are     3 symmetry adapted cartesian basis functions of AG  symmetry.
 There are     0 symmetry adapted cartesian basis functions of B1G symmetry.
 There are     1 symmetry adapted cartesian basis functions of B2G symmetry.
 There are     1 symmetry adapted cartesian basis functions of B3G symmetry.
 There are     0 symmetry adapted cartesian basis functions of AU  symmetry.
 There are     3 symmetry adapted cartesian basis functions of B1U symmetry.
 There are     2 symmetry adapted cartesian basis functions of B2U symmetry.
 There are     2 symmetry adapted cartesian basis functions of B3U symmetry.
 There are     3 symmetry adapted basis functions of AG  symmetry.
 There are     0 symmetry adapted basis functions of B1G symmetry.
 There are     1 symmetry adapted basis functions of B2G symmetry.
 There are     1 symmetry adapted basis functions of B3G symmetry.
 There are     0 symmetry adapted basis functions of AU  symmetry.
 There are     3 symmetry adapted basis functions of B1U symmetry.
 There are     2 symmetry adapted basis functions of B2U symmetry.
 There are     2 symmetry adapted basis functions of B3U symmetry.
    12 basis functions,    72 primitive gaussians,    12 cartesian basis functions
     8 alpha electrons        8 beta electrons
       nuclear repulsion energy        48.1217008816 Hartrees.
 IExCor=    0 DFT=F Ex=HF Corr=None ExCW=0 ScaHFX=  1.000000
 ScaDFX=  1.000000  1.000000  1.000000  1.000000 ScalE2=  1.000000  1.000000
 IRadAn=      5 IRanWt=     -1 IRanGd=            0 ICorTp=0 IEmpDi=  4
 Integral buffers will be    131072 words long.
 Regular integral format.
 Two-electron integral symmetry is turned off.
 Leave Link  301 at Fri Sep  6 10:15:43 2024, MaxMem=   104857600 cpu:               0.0 elap:               0.0
 (Enter /Users/asuyarger/Applications/G16/g16/l302.exe)
 Do NDO integrals.
 NPDir=0 NMtPBC=     1 NCelOv=     1 NCel=       1 NClECP=     1 NCelD=      1
         NCelK=      1 NCelE2=     1 NClLst=     1 CellRange=     0.0.
 One-electron integrals computed using PRISM.
 NBasis=    12 RedAO= T EigKep=  1.00D+00  NBF=     3     0     1     1     0     3     2     2
 NBsUse=    12 1.00D-06 EigRej= -1.00D+00 NBFU=     3     0     1     1     0     3     2     2
 Leave Link  302 at Fri Sep  6 10:15:43 2024, MaxMem=   104857600 cpu:               0.0 elap:               0.0
 (Enter /Users/asuyarger/Applications/G16/g16/l303.exe)
 DipDrv:  MaxL=1.
 Leave Link  303 at Fri Sep  6 10:15:43 2024, MaxMem=   104857600 cpu:               0.0 elap:               0.0
 (Enter /Users/asuyarger/Applications/G16/g16/l401.exe)
 Simple Huckel Guess.
 JPrj=0 DoOrth=F DoCkMO=F.
 Initial guess orbital symmetries:
       Occupied  (SGG) (SGU) (SGG) (PIU) (PIU) (SGU) (PIG) (PIG)
       Virtual   (PIU) (PIU) (SGG) (SGU)
 The electronic state of the initial guess is 1-SGG.
 Leave Link  401 at Fri Sep  6 10:15:43 2024, MaxMem=   104857600 cpu:               0.0 elap:               0.0
 (Enter /Users/asuyarger/Applications/G16/g16/l502.exe)
 Keep J ints in memory in canonical form, NReq=859527.
 FoFCou: FMM=F IPFlag=           0 FMFlag=           0 FMFlg1=           0
         NFxFlg=           0 DoJE=F BraDBF=F KetDBF=F FulRan=T
         wScrn=  0.000000 ICntrl=       600 IOpCl=  2 I1Cent=           0 NGrid=           0
         NMat0=    1 NMatS0=     30 NMatT0=    0 NMatD0=    1 NMtDS0=    0 NMtDT0=    0
 Symmetry not used in FoFCou.
 Two-electron integral symmetry not used.
 Closed shell SCF:
 Using DIIS extrapolation, IDIIS=  1040.
 Overlap will be assumed to be unity.
 NGot=   104857600 LenX=   104796874 LenY=   104795992
 Requested convergence on RMS density matrix=1.00D-08 within 128 cycles.
 Requested convergence on MAX density matrix=1.00D-06.
 Requested convergence on             energy=1.00D-06.
 No special actions if energy rises.

 Cycle   1  Pass 1  IDiag  1:
 E= 0.100941925467332    
 DIIS: error= 4.06D-02 at cycle   1 NSaved=   1.
 NSaved= 1 IEnMin= 1 EnMin= 0.100941925467332     IErMin= 1 ErrMin= 4.06D-02
 ErrMax= 4.06D-02  0.00D+00 EMaxC= 1.00D-01 BMatC= 3.51D-02 BMatP= 3.51D-02
 IDIUse=3 WtCom= 5.94D-01 WtEn= 4.06D-01
 Coeff-Com:  0.100D+01
 Coeff-En:   0.100D+01
 Coeff:      0.100D+01
 GapD=    2.000 DampG=2.000 DampE=0.500 DampFc=1.0000 IDamp=-1.
 RMSDP=3.33D-02 MaxDP=1.31D-01              OVMax= 0.00D+00

 Cycle   2  Pass 1  IDiag  1:
 E=-0.658067119631340E-01 Delta-E=       -0.166748637430 Rises=F Damp=F
 DIIS: error= 2.18D-02 at cycle   2 NSaved=   2.
 NSaved= 2 IEnMin= 2 EnMin=-0.658067119631340E-01 IErMin= 2 ErrMin= 2.18D-02
 ErrMax= 2.18D-02  0.00D+00 EMaxC= 1.00D-01 BMatC= 9.70D-03 BMatP= 3.51D-02
 IDIUse=3 WtCom= 7.82D-01 WtEn= 2.18D-01
 Coeff-Com: -0.988D+00 0.199D+01
 Coeff-En:   0.000D+00 0.100D+01
 Coeff:     -0.773D+00 0.177D+01
 RMSDP=2.53D-02 MaxDP=1.08D-01 DE=-1.67D-01 OVMax= 0.00D+00

 Cycle   3  Pass 1  IDiag  1:
 E=-0.107353680977013     Delta-E=       -0.041546969014 Rises=F Damp=F
 DIIS: error= 2.40D-03 at cycle   3 NSaved=   3.
 NSaved= 3 IEnMin= 3 EnMin=-0.107353680977013     IErMin= 3 ErrMin= 2.40D-03
 ErrMax= 2.40D-03  0.00D+00 EMaxC= 1.00D-01 BMatC= 1.86D-04 BMatP= 9.70D-03
 IDIUse=3 WtCom= 9.76D-01 WtEn= 2.40D-02
 Coeff-Com:  0.529D-01-0.202D-01 0.967D+00
 Coeff-En:   0.000D+00 0.000D+00 0.100D+01
 Coeff:      0.516D-01-0.197D-01 0.968D+00
 RMSDP=2.71D-03 MaxDP=9.84D-03 DE=-4.15D-02 OVMax= 0.00D+00

 Cycle   4  Pass 1  IDiag  3:
 E=-0.107898868756415     Delta-E=       -0.000545187779 Rises=F Damp=F
 DIIS: error= 9.45D-04 at cycle   4 NSaved=   4.
 NSaved= 4 IEnMin= 4 EnMin=-0.107898868756415     IErMin= 4 ErrMin= 9.45D-04
 ErrMax= 9.45D-04  0.00D+00 EMaxC= 1.00D-01 BMatC= 1.52D-05 BMatP= 1.86D-04
 IDIUse=3 WtCom= 9.91D-01 WtEn= 9.45D-03
 Coeff-Com:  0.381D-01-0.117D+00-0.127D+00 0.121D+01
 Coeff-En:   0.000D+00 0.000D+00 0.000D+00 0.100D+01
 Coeff:      0.377D-01-0.116D+00-0.125D+00 0.120D+01
 Fock symm off for IB=3 I1=    1 I=    4 J=    1 Cut=1.00D-07 Err=3.83D-04
 Fock matrix is not symmetric: symmetry in diagonalization turned off.
 Gap=     0.450 Goal=   None    Shift=    0.000
 RMSDP=8.09D-04 MaxDP=3.67D-03 DE=-5.45D-04 OVMax= 6.53D-03

 Cycle   5  Pass 1  IDiag  3:
 E=-0.107959837694345     Delta-E=       -0.000060968938 Rises=F Damp=F
 DIIS: error= 1.73D-04 at cycle   5 NSaved=   5.
 NSaved= 5 IEnMin= 5 EnMin=-0.107959837694345     IErMin= 5 ErrMin= 1.73D-04
 ErrMax= 1.73D-04  0.00D+00 EMaxC= 1.00D-01 BMatC= 6.67D-07 BMatP= 1.52D-05
 IDIUse=3 WtCom= 9.98D-01 WtEn= 1.73D-03
 Coeff-Com: -0.343D-02 0.141D-01 0.672D-01-0.397D+00 0.132D+01
 Coeff-En:   0.000D+00 0.000D+00 0.000D+00 0.000D+00 0.100D+01
 Coeff:     -0.343D-02 0.140D-01 0.671D-01-0.396D+00 0.132D+01
 Gap=     0.450 Goal=   None    Shift=    0.000
 RMSDP=1.85D-04 MaxDP=9.15D-04 DE=-6.10D-05 OVMax= 1.14D-03

 Cycle   6  Pass 1  IDiag  3:
 E=-0.107962273151763     Delta-E=       -0.000002435457 Rises=F Damp=F
 DIIS: error= 1.24D-05 at cycle   6 NSaved=   6.
 NSaved= 6 IEnMin= 6 EnMin=-0.107962273151763     IErMin= 6 ErrMin= 1.24D-05
 ErrMax= 1.24D-05  0.00D+00 EMaxC= 1.00D-01 BMatC= 1.64D-09 BMatP= 6.67D-07
 IDIUse=1 WtCom= 1.00D+00 WtEn= 0.00D+00
 Coeff-Com:  0.869D-03-0.388D-02-0.233D-01 0.126D+00-0.409D+00 0.131D+01
 Coeff:      0.869D-03-0.388D-02-0.233D-01 0.126D+00-0.409D+00 0.131D+01
 Gap=     0.450 Goal=   None    Shift=    0.000
 RMSDP=8.27D-06 MaxDP=5.08D-05 DE=-2.44D-06 OVMax= 6.28D-05

 Cycle   7  Pass 1  IDiag  3:
 E=-0.107962278038947     Delta-E=       -0.000000004887 Rises=F Damp=F
 DIIS: error= 1.34D-06 at cycle   7 NSaved=   7.
 NSaved= 7 IEnMin= 7 EnMin=-0.107962278038947     IErMin= 7 ErrMin= 1.34D-06
 ErrMax= 1.34D-06  0.00D+00 EMaxC= 1.00D-01 BMatC= 4.45D-11 BMatP= 1.64D-09
 IDIUse=1 WtCom= 1.00D+00 WtEn= 0.00D+00
 Coeff-Com:  0.246D-04 0.205D-03 0.369D-02-0.166D-01 0.534D-01-0.282D+00
 Coeff-Com:  0.124D+01
 Coeff:      0.246D-04 0.205D-03 0.369D-02-0.166D-01 0.534D-01-0.282D+00
 Coeff:      0.124D+01
 Gap=     0.450 Goal=   None    Shift=    0.000
 RMSDP=1.09D-06 MaxDP=6.03D-06 DE=-4.89D-09 OVMax= 6.08D-06

 Cycle   8  Pass 1  IDiag  3:
 E=-0.107962278188616     Delta-E=       -0.000000000150 Rises=F Damp=F
 DIIS: error= 5.45D-07 at cycle   8 NSaved=   8.
 NSaved= 8 IEnMin= 8 EnMin=-0.107962278188616     IErMin= 8 ErrMin= 5.45D-07
 ErrMax= 5.45D-07  0.00D+00 EMaxC= 1.00D-01 BMatC= 8.36D-12 BMatP= 4.45D-11
 IDIUse=1 WtCom= 1.00D+00 WtEn= 0.00D+00
 Coeff-Com: -0.184D-07 0.113D-07 0.228D-03-0.126D-02 0.439D-02-0.677D-02
 Coeff-Com: -0.271D+00 0.127D+01
 Coeff:     -0.184D-07 0.113D-07 0.228D-03-0.126D-02 0.439D-02-0.677D-02
 Coeff:     -0.271D+00 0.127D+01
 Gap=     0.450 Goal=   None    Shift=    0.000
 RMSDP=6.50D-07 MaxDP=2.35D-06 DE=-1.50D-10 OVMax= 3.25D-06

 Cycle   9  Pass 1  IDiag  3:
 E=-0.107962278219965     Delta-E=       -0.000000000031 Rises=F Damp=F
 DIIS: error= 1.30D-09 at cycle   9 NSaved=   9.
 NSaved= 9 IEnMin= 9 EnMin=-0.107962278219965     IErMin= 9 ErrMin= 1.30D-09
 ErrMax= 1.30D-09  0.00D+00 EMaxC= 1.00D-01 BMatC= 4.26D-17 BMatP= 8.36D-12
 IDIUse=1 WtCom= 1.00D+00 WtEn= 0.00D+00
 Large coefficients: NSaved=  9 BigCof=    0.00 CofMax=   10.00 Det=-4.94D-27
 Inversion failed.  Reducing to  8 matrices.
 Coeff-Com: -0.620D-08 0.105D-04-0.550D-04 0.190D-03-0.378D-03-0.122D-01
 Coeff-Com:  0.572D-01 0.955D+00
 Coeff:     -0.620D-08 0.105D-04-0.550D-04 0.190D-03-0.378D-03-0.122D-01
 Coeff:      0.572D-01 0.955D+00
 Gap=     0.450 Goal=   None    Shift=    0.000
 RMSDP=1.23D-09 MaxDP=5.12D-09 DE=-3.13D-11 OVMax= 5.40D-09

 Cycle  10  Pass 2  IDiag  1:
 SCF Done:  E(RPM6) = -0.107962278220     A.U. after   10 cycles
            NFock=  9  Conv=0.12D-08     -V/T= 0.9975
 KE=-4.293152482358D+01 PE=-4.161005256789D+01 EE= 3.631191423167D+01
 Leave Link  502 at Fri Sep  6 10:15:43 2024, MaxMem=   104857600 cpu:               0.0 elap:               0.0
 (Enter /Users/asuyarger/Applications/G16/g16/l601.exe)
 Copying SCF densities to generalized density rwf, IOpCl= 0 IROHF=0.

 **********************************************************************

            Population analysis using the SCF density.

 **********************************************************************

 Orbital symmetries:
       Occupied  (SGU) (SGG) (SGG) (SGU) (PIU) (PIU) (PIG) (PIG)
       Virtual   (PIU) (PIU) (SGG) (SGU)
 The electronic state is 1-SGG.
 Alpha  occ. eigenvalues --   -1.22626  -1.16035  -0.79835  -0.62022  -0.61546
 Alpha  occ. eigenvalues --   -0.61546  -0.46138  -0.46138
 Alpha virt. eigenvalues --   -0.01140  -0.01140   0.01101   0.13334
     Molecular Orbital Coefficients:
                           1         2         3         4         5
                       (SGU)--O  (SGG)--O  (SGG)--O  (SGU)--O  (PIU)--O
     Eigenvalues --    -1.22626  -1.16035  -0.79835  -0.62022  -0.61546
   1 1   C  1S         -0.00000   0.56912   0.48845  -0.00000   0.00000
   2        1PX        -0.00000   0.00000  -0.00000  -0.00000   0.07151
   3        1PY         0.00000   0.00000  -0.00000   0.00000   0.59191
   4        1PZ         0.50783   0.00000  -0.00000  -0.39065   0.00000
   5 2   O  1S          0.57966   0.51575  -0.47467   0.34866  -0.00000
   6        1PX         0.00000  -0.00000  -0.00000  -0.00000   0.06809
   7        1PY         0.00000   0.00000  -0.00000   0.00000   0.56359
   8        1PZ        -0.18722  -0.26844  -0.39420   0.54967  -0.00000
   9 3   O  1S         -0.57966   0.51575  -0.47467  -0.34866   0.00000
  10        1PX         0.00000  -0.00000  -0.00000  -0.00000   0.06809
  11        1PY        -0.00000   0.00000  -0.00000   0.00000   0.56359
  12        1PZ        -0.18722   0.26844   0.39420   0.54967  -0.00000
                           6         7         8         9        10
                       (PIU)--O  (PIG)--O  (PIG)--O  (PIU)--V  (PIU)--V
     Eigenvalues --    -0.61546  -0.46138  -0.46138  -0.01140  -0.01140
   1 1   C  1S         -0.00000  -0.00000  -0.00000  -0.00000  -0.00000
   2        1PX         0.59191  -0.00000   0.00000  -0.05983   0.80059
   3        1PY        -0.07151   0.00000   0.00000   0.80059   0.05983
   4        1PZ        -0.00000   0.00000  -0.00000   0.00000  -0.00000
   5 2   O  1S          0.00000  -0.00000  -0.00000   0.00000   0.00000
   6        1PX         0.56359  -0.10832   0.69876   0.03142  -0.42041
   7        1PY        -0.06809   0.69876   0.10832  -0.42041  -0.03142
   8        1PZ         0.00000  -0.00000  -0.00000  -0.00000  -0.00000
   9 3   O  1S         -0.00000   0.00000   0.00000   0.00000   0.00000
  10        1PX         0.56359   0.10832  -0.69876   0.03142  -0.42041
  11        1PY        -0.06809  -0.69876  -0.10832  -0.42041  -0.03142
  12        1PZ         0.00000  -0.00000  -0.00000   0.00000   0.00000
                          11        12
                       (SGG)--V  (SGU)--V
     Eigenvalues --     0.01101   0.13334
   1 1   C  1S          0.66146   0.00000
   2        1PX         0.00000   0.00000
   3        1PY         0.00000   0.00000
   4        1PZ        -0.00000   0.76779
   5 2   O  1S         -0.09323  -0.20600
   6        1PX        -0.00000  -0.00000
   7        1PY        -0.00000  -0.00000
   8        1PZ         0.52206   0.40350
   9 3   O  1S         -0.09323   0.20600
  10        1PX        -0.00000  -0.00000
  11        1PY        -0.00000  -0.00000
  12        1PZ        -0.52206   0.40350
     Density Matrix:
                           1         2         3         4         5
   1 1   C  1S          1.12495
   2        1PX         0.00000   0.71094
   3        1PY         0.00000  -0.00000   0.71094
   4        1PZ        -0.00000   0.00000  -0.00000   0.82101
   5 2   O  1S          0.12333  -0.00000  -0.00000   0.31633   1.89775
   6        1PX        -0.00000   0.67692  -0.00000  -0.00000   0.00000
   7        1PY        -0.00000   0.00000   0.67692   0.00000   0.00000
   8        1PZ        -0.69064   0.00000   0.00000  -0.61961   0.26358
   9 3   O  1S          0.12333  -0.00000  -0.00000  -0.31633   0.06749
  10        1PX         0.00000   0.67692  -0.00000   0.00000  -0.00000
  11        1PY         0.00000   0.00000   0.67692  -0.00000  -0.00000
  12        1PZ         0.69064   0.00000   0.00000  -0.61961   0.06890
                           6         7         8         9        10
   6        1PX         1.64453
   7        1PY        -0.00000   1.64453
   8        1PZ        -0.00000  -0.00000   1.12927
   9 3   O  1S         -0.00000  -0.00000  -0.06890   1.89775
  10        1PX        -0.35547   0.00000   0.00000   0.00000   1.64453
  11        1PY         0.00000  -0.35547   0.00000   0.00000  -0.00000
  12        1PZ        -0.00000  -0.00000   0.21946  -0.26358   0.00000
                          11        12
  11        1PY         1.64453
  12        1PZ         0.00000   1.12927
    Full Mulliken population analysis:
                           1         2         3         4         5
   1 1   C  1S          1.12495
   2        1PX         0.00000   0.71094
   3        1PY         0.00000   0.00000   0.71094
   4        1PZ         0.00000   0.00000   0.00000   0.82101
   5 2   O  1S          0.00000   0.00000   0.00000   0.00000   1.89775
   6        1PX         0.00000   0.00000   0.00000   0.00000   0.00000
   7        1PY         0.00000   0.00000   0.00000   0.00000   0.00000
   8        1PZ         0.00000   0.00000   0.00000   0.00000   0.00000
   9 3   O  1S          0.00000   0.00000   0.00000   0.00000   0.00000
  10        1PX         0.00000   0.00000   0.00000   0.00000   0.00000
  11        1PY         0.00000   0.00000   0.00000   0.00000   0.00000
  12        1PZ         0.00000   0.00000   0.00000   0.00000   0.00000
                           6         7         8         9        10
   6        1PX         1.64453
   7        1PY         0.00000   1.64453
   8        1PZ         0.00000   0.00000   1.12927
   9 3   O  1S          0.00000   0.00000   0.00000   1.89775
  10        1PX         0.00000   0.00000   0.00000   0.00000   1.64453
  11        1PY         0.00000   0.00000   0.00000   0.00000   0.00000
  12        1PZ         0.00000   0.00000   0.00000   0.00000   0.00000
                          11        12
  11        1PY         1.64453
  12        1PZ         0.00000   1.12927
     Gross orbital populations:
                           1
   1 1   C  1S          1.12495
   2        1PX         0.71094
   3        1PY         0.71094
   4        1PZ         0.82101
   5 2   O  1S          1.89775
   6        1PX         1.64453
   7        1PY         1.64453
   8        1PZ         1.12927
   9 3   O  1S          1.89775
  10        1PX         1.64453
  11        1PY         1.64453
  12        1PZ         1.12927
          Condensed to atoms (all electrons):
               1          2          3
     1  C    3.367841   0.000000   0.000000
     2  O    0.000000   6.316080   0.000000
     3  O    0.000000   0.000000   6.316080
 Mulliken charges:
               1
     1  C    0.632159
     2  O   -0.316080
     3  O   -0.316080
 Sum of Mulliken charges =  -0.00000
 Mulliken charges with hydrogens summed into heavy atoms:
               1
     1  C    0.632159
     2  O   -0.316080
     3  O   -0.316080
 Charge=             -0.0000 electrons
 Dipole moment (field-independent basis, Debye):
    X=             -0.0000    Y=             -0.0000    Z=              0.0000  Tot=              0.0000
 N-N= 4.812170088158D+01 E-N=-4.161005257067D+01  KE=-4.293152482358D+01
 Symmetry AG   KE=-1.172320373832D+01
 Symmetry B1G  KE= 0.000000000000D+00
 Symmetry B2G  KE=-5.174208619607D+00
 Symmetry B3G  KE=-5.174208619607D+00
 Symmetry AU   KE= 0.000000000000D+00
 Symmetry B1U  KE=-1.154064474621D+01
 Symmetry B2U  KE=-4.659629549919D+00
 Symmetry B3U  KE=-4.659629549919D+00
 StAtR1:  DoIntr=F IAtCor=3 NETot=      16 Failed=F Sum=  6.00D+00 SumC=  0.00D+00
 There are a total of       65718 grid points.
 ElSum from          density=       17.4466333549
 ElSum from atomic densities=       22.0000000770
 Hirshfeld populations at iteration   1 (CA, CB, DipXYZ):
               1          2          3          4          5
     1  C    1.354367   1.354367   0.000000   0.000000  -0.000000
     2  O    3.684475   3.684475  -0.000000   0.000000   0.727994
     3  O    3.684475   3.684475  -0.000000   0.000000  -0.727994
       Tot   8.723317   8.723317   0.000000   0.000000  -0.000000

 Dip from Atomic Chgs             -0.000000   0.000000  -0.000000
         Total Dipole              0.000000   0.000000  -0.000000

 Hirshfeld charges, spin densities, dipoles, and CM5 charges using IRadAn=      5:
              Q-H        S-H        Dx         Dy         Dz        Q-CM5   
     1  C    1.291265   0.000000   0.000000   0.000000  -0.000000   1.356075
     2  O   -1.368949   0.000000  -0.000000   0.000000   0.727994  -1.401354
     3  O   -1.368949   0.000000  -0.000000   0.000000  -0.727994  -1.401354
       Tot  -1.446633   0.000000   0.000000   0.000000  -0.000000  -1.446633
 Hirshfeld charges with hydrogens summed into heavy atoms:
              Q-H       Q-CM5   
     1  C    1.291265   1.356075
     2  O   -1.368949  -1.401354
     3  O   -1.368949  -1.401354
 
 EQQ= 0.000000000000E+00 EQD= 0.000000000000E+00 EDD=-0.492620997807E-02
 EQQ+QD+DD=-0.492620997807E-02
 
 Orbital energies and kinetic energies (alpha):
                                 1                 2
   1         (SGU)--O         -1.226261         -3.151901
   2         (SGG)--O         -1.160353         -3.035155
   3         (SGG)--O         -0.798346         -2.826447
   4         (SGU)--O         -0.620221         -2.618421
   5         (PIU)--O         -0.615461         -2.329815
   6         (PIU)--O         -0.615461         -2.329815
   7         (PIG)--O         -0.461385         -2.587104
   8         (PIG)--O         -0.461385         -2.587104
   9         (PIU)--V         -0.011395         -1.729557
  10         (PIU)--V         -0.011395         -1.729557
  11         (SGG)--V          0.011014         -1.991387
  12         (SGU)--V          0.133336         -1.638940
 Total kinetic energy from orbitals=-4.293152482358D+01
 Leave Link  601 at Fri Sep  6 10:15:43 2024, MaxMem=   104857600 cpu:               0.1 elap:               0.1
 (Enter /Users/asuyarger/Applications/G16/g16/l607.exe)
 ******************************Gaussian NBO Version 3.1******************************
             N A T U R A L   A T O M I C   O R B I T A L   A N D
          N A T U R A L   B O N D   O R B I T A L   A N A L Y S I S
 ******************************Gaussian NBO Version 3.1******************************
       /RESON  / : Allow strongly delocalized NBO set

 Analyzing the SCF density

 Job title: CO2 PM6 Opt Freq                                                

 Storage needed:       492 in NPA,       625 in NBO ( 104857537 available)


 NATURAL POPULATIONS:  Natural atomic orbital occupancies 
                                                          
   NAO  Atom  No  lang   Type(AO)    Occupancy      Energy
 ----------------------------------------------------------
     1    C    1  S      Val( 2S)     1.12495      -0.56148
     2    C    1  px     Val( 2p)     0.71094      -0.22612
     3    C    1  py     Val( 2p)     0.71094      -0.22612
     4    C    1  pz     Val( 2p)     0.82101      -0.33230

     5    O    2  S      Val( 2S)     1.89775      -0.97019
     6    O    2  px     Val( 2p)     1.64453      -0.43106
     7    O    2  py     Val( 2p)     1.64453      -0.43106
     8    O    2  pz     Val( 2p)     1.12927      -0.41333

     9    O    3  S      Val( 2S)     1.89775      -0.97019
    10    O    3  px     Val( 2p)     1.64453      -0.43106
    11    O    3  py     Val( 2p)     1.64453      -0.43106
    12    O    3  pz     Val( 2p)     1.12927      -0.41333

 [  6 electrons found in the effective core potential]


 Summary of Natural Population Analysis:                  
                                                          
                                       Natural Population 
                Natural  -----------------------------------------------
    Atom  No    Charge         Core      Valence    Rydberg      Total
 -----------------------------------------------------------------------
      C    1    0.63216      2.00000     3.36784    0.00000     5.36784
      O    2   -0.31608      2.00000     6.31608    0.00000     8.31608
      O    3   -0.31608      2.00000     6.31608    0.00000     8.31608
 =======================================================================
   * Total *   -0.00000      6.00000    16.00000    0.00000    22.00000

                                 Natural Population      
 --------------------------------------------------------
   Effective Core             6.00000
   Valence                   16.00000 (100.0000% of  16)
   Natural Minimal Basis     22.00000 (100.0000% of  22)
   Natural Rydberg Basis      0.00000 (  0.0000% of  22)
 --------------------------------------------------------

    Atom  No          Natural Electron Configuration
 ----------------------------------------------------------------------------
      C    1      [core]2S( 1.12)2p( 2.24)
      O    2      [core]2S( 1.90)2p( 4.42)
      O    3      [core]2S( 1.90)2p( 4.42)


 NATURAL BOND ORBITAL ANALYSIS:

                       Occupancies       Lewis Structure    Low   High
           Occ.    -------------------  -----------------   occ   occ
  Cycle   Thresh.   Lewis   Non-Lewis     CR  BD  3C  LP    (L)   (NL)   Dev
 =============================================================================
   1(1)    1.90    21.22393   0.77607      0   4   0   4     2      2    0.89
   2(2)    1.90    21.22393   0.77607      0   4   0   4     2      2    0.89
   3(1)    1.80    21.22393   0.77607      0   4   0   4     2      2    0.89
   4(2)    1.80    21.22393   0.77607      0   4   0   4     2      2    0.89
   5(1)    1.70    21.22393   0.77607      0   4   0   4     2      2    0.89
   6(2)    1.70    21.22393   0.77607      0   4   0   4     2      2    0.89
   7(1)    1.60    20.51299   1.48701      0   2   0   6     0      2    0.89
   8(2)    1.60    20.51299   1.48701      0   2   0   6     0      2    0.89
   9(1)    1.50    20.51299   1.48701      0   2   0   6     0      2    0.89
  10(2)    1.50    20.51299   1.48701      0   2   0   6     0      2    0.89
  11(1)    1.90    21.22393   0.77607      0   4   0   4     2      2    0.89
 -----------------------------------------------------------------------------

 Structure accepted: RESONANCE keyword permits strongly delocalized structure

           --- Apparent excited state configuration ---
 The following "inverted" NBO labels reflect the actual hybrid overlap:

                 NBO   9 has been relabelled BD 

                 NBO  10 has been relabelled BD 

                 NBO  11 has been relabelled BD 

                 NBO  12 has been relabelled BD 

                 NBO   8 has been relabelled LP*

                 NBO   7 has been relabelled LP*

                 NBO   6 has been relabelled LP*

                 NBO   5 has been relabelled LP*

 --------------------------------------------------------
   Effective Core            6.00000
   Valence Lewis             8.75201 ( 54.700% of  16)
  ==================       ============================
   Total Lewis              14.75201 ( 67.055% of  22)
  -----------------------------------------------------
   Valence non-Lewis         7.24799 ( 32.945% of  22)
   Rydberg non-Lewis         0.00000 (  0.000% of  22)
  ==================       ============================
   Total non-Lewis           7.24799 ( 32.945% of  22)
 --------------------------------------------------------


       (Occupancy)   Bond orbital/ Coefficients/ Hybrids
 ---------------------------------------------------------------------------------
     1. (1.98797) BD ( 1) C   1 - O   2  
                ( 48.09%)   0.6935* C   1 s( 50.00%)p 1.00( 50.00%)
                                            0.7071  0.0000  0.0000  0.7071
                ( 51.91%)   0.7205* O   2 s(  8.77%)p10.40( 91.23%)
                                            0.2961  0.0000  0.0000 -0.9552
     2. (2.00000) BD ( 2) C   1 - O   2  
                ( 21.62%)   0.4649* C   1 s(  0.00%)p 1.00(100.00%)
                                            0.0000  1.0000  0.0000  0.0000
                ( 78.38%)   0.8854* O   2 s(  0.00%)p 1.00(100.00%)
                                            0.0000  1.0000  0.0000  0.0000
     3. (2.00000) BD ( 3) C   1 - O   2  
                ( 21.62%)   0.4649* C   1 s(  0.00%)p 1.00(100.00%)
                                            0.0000  0.0000  1.0000  0.0000
                ( 78.38%)   0.8854* O   2 s(  0.00%)p 1.00(100.00%)
                                            0.0000  0.0000  1.0000  0.0000
     4. (1.98797) BD ( 1) C   1 - O   3  
                ( 48.09%)   0.6935* C   1 s( 50.00%)p 1.00( 50.00%)
                                            0.7071  0.0000  0.0000 -0.7071
                ( 51.91%)   0.7205* O   3 s(  8.77%)p10.40( 91.23%)
                                            0.2961  0.0000  0.0000  0.9552
     5. (1.97946) LP*( 1) O   2           s( 91.23%)p 0.10(  8.77%)
                                            0.9552  0.0000  0.0000  0.2961
     6. (1.97946) LP*( 1) O   3           s( 91.23%)p 0.10(  8.77%)
                                            0.9552  0.0000  0.0000 -0.2961
     7. (1.64453) LP*( 2) O   3           s(  0.00%)p 1.00(100.00%)
                                            0.0000  1.0000  0.0000  0.0000
     8. (1.64453) LP*( 3) O   3           s(  0.00%)p 1.00(100.00%)
                                            0.0000  0.0000  1.0000  0.0000
     9. (0.03256) BD ( 1) C   1 - O   2  
                ( 51.91%)   0.7205* C   1 s( 50.00%)p 1.00( 50.00%)
                                            0.7071  0.0000  0.0000  0.7071
                ( 48.09%)   0.6935* O   2 s(  8.77%)p10.40( 91.23%)
                                           -0.2961 -0.0000 -0.0000  0.9552
    10. (0.35547) BD ( 2) C   1 - O   2  
                ( 78.38%)   0.8854* C   1 s(  0.00%)p 1.00(100.00%)
                                            0.0000  1.0000  0.0000  0.0000
                ( 21.62%)   0.4649* O   2 s(  0.00%)p 1.00(100.00%)
                                           -0.0000 -1.0000 -0.0000 -0.0000
    11. (0.35547) BD ( 3) C   1 - O   2  
                ( 78.38%)   0.8854* C   1 s(  0.00%)p 1.00(100.00%)
                                            0.0000  0.0000  1.0000  0.0000
                ( 21.62%)   0.4649* O   2 s(  0.00%)p 1.00(100.00%)
                                           -0.0000 -0.0000 -1.0000 -0.0000
    12. (0.03256) BD ( 1) C   1 - O   3  
                ( 51.91%)   0.7205* C   1 s( 50.00%)p 1.00( 50.00%)
                                            0.7071  0.0000  0.0000 -0.7071
                ( 48.09%)   0.6935* O   3 s(  8.77%)p10.40( 91.23%)
                                           -0.2961 -0.0000 -0.0000 -0.9552


 NHO Directionality and "Bond Bending" (deviations from line of nuclear centers)

         [Thresholds for printing:  angular deviation  >  1.0 degree]
                                    hybrid p-character > 25.0%
                                    orbital occupancy  >  0.10e

                                Line of Centers        Hybrid 1              Hybrid 2
                                ---------------  -------------------   ------------------
                NBO               Theta   Phi    Theta   Phi    Dev    Theta   Phi    Dev
 ========================================================================================
     2. BD (   2) C   1 - O   2     0.0    0.0    90.0    0.0  90.0     90.0    0.0  90.0
     3. BD (   3) C   1 - O   2     0.0    0.0    90.0   90.0  90.0     90.0   90.0  90.0
     7. LP*(   2) O   3             --     --     90.0    0.0   --       --     --    --
     8. LP*(   3) O   3             --     --     90.0   90.0   --       --     --    --
    10. BD (   2) C   1 - O   2     0.0    0.0    90.0    0.0  90.0     90.0    0.0  90.0
    11. BD (   3) C   1 - O   2     0.0    0.0    90.0   90.0  90.0     90.0   90.0  90.0


 Second Order Perturbation Theory Analysis of Fock Matrix in NBO Basis

     Threshold for printing:   0.50 kcal/mol
                                                                              E(2)  E(j)-E(i) F(i,j)
         Donor NBO (i)                     Acceptor NBO (j)                 kcal/mol   a.u.    a.u. 
 ===================================================================================================

 within unit  1
   1. BD (   1) C   1 - O   2        /  5. LP*(   1) O   2                   19.30    0.06    0.243
   1. BD (   1) C   1 - O   2        /  6. LP*(   1) O   3                    1.42    0.06    0.066
   1. BD (   1) C   1 - O   2        / 12. BD (   1) C   1 - O   3            3.85    1.04    0.057
   2. BD (   2) C   1 - O   2        /  7. LP*(   2) O   3                    8.37    0.12    0.068
   2. BD (   2) C   1 - O   2        / 10. BD (   2) C   1 - O   2            2.29    0.45    0.032
   3. BD (   3) C   1 - O   2        /  8. LP*(   3) O   3                    8.37    0.12    0.068
   3. BD (   3) C   1 - O   2        / 11. BD (   3) C   1 - O   2            2.29    0.45    0.032
   4. BD (   1) C   1 - O   3        /  5. LP*(   1) O   2                    1.42    0.06    0.066
   4. BD (   1) C   1 - O   3        /  6. LP*(   1) O   3                   19.30    0.06    0.243
   4. BD (   1) C   1 - O   3        /  9. BD (   1) C   1 - O   2            3.85    1.04    0.057
   5. LP*(   1) O   2                / 12. BD (   1) C   1 - O   3            8.59    0.97    0.082
   6. LP*(   1) O   3                /  9. BD (   1) C   1 - O   2            8.59    0.97    0.082
   7. LP*(   2) O   3                / 10. BD (   2) C   1 - O   2          145.24    0.33    0.195
   8. LP*(   3) O   3                / 11. BD (   3) C   1 - O   2          145.24    0.33    0.195


 Natural Bond Orbitals (Summary):

                                                            Principal Delocalizations
           NBO                        Occupancy    Energy   (geminal,vicinal,remote)
 ====================================================================================
 Molecular unit  1  (CO2)
     1. BD (   1) C   1 - O   2          1.98797    -0.97623  5(g),6(v),12(g)
     2. BD (   2) C   1 - O   2          2.00000    -0.55508  7(v),10(g)
     3. BD (   3) C   1 - O   2          2.00000    -0.55508  8(v),11(g)
     4. BD (   1) C   1 - O   3          1.98797    -0.97623  6(g),5(v),9(g)
     5. LP*(   1) O   2                  1.97946    -0.91352  6(r),12(v)
     6. LP*(   1) O   3                  1.97946    -0.91352  5(r),9(v)
     7. LP*(   2) O   3                  1.64453    -0.43106  10(v)
     8. LP*(   3) O   3                  1.64453    -0.43106  11(v)
     9. BD (   1) C   1 - O   2          0.03256     0.05934   
    10. BD (   2) C   1 - O   2          0.35547    -0.10211  7(v)
    11. BD (   3) C   1 - O   2          0.35547    -0.10211  8(v)
    12. BD (   1) C   1 - O   3          0.03256     0.05934   
       -------------------------------
              Total Lewis   14.75201  ( 67.0546%)
        Valence non-Lewis    7.24799  ( 32.9454%)
        Rydberg non-Lewis    0.00000  (  0.0000%)
       -------------------------------
            Total unit  1   22.00000  (100.0000%)
           Charge unit  1    0.00000
 Leave Link  607 at Fri Sep  6 10:15:43 2024, MaxMem=   104857600 cpu:               0.2 elap:               0.2
 (Enter /Users/asuyarger/Applications/G16/g16/l701.exe)
 ... and contract with generalized density number  0.
 Compute integral first derivatives.
 Leave Link  701 at Fri Sep  6 10:15:43 2024, MaxMem=   104857600 cpu:               0.0 elap:               0.0
 (Enter /Users/asuyarger/Applications/G16/g16/l702.exe)
 L702 exits ... SP integral derivatives will be done elsewhere.
 Leave Link  702 at Fri Sep  6 10:15:43 2024, MaxMem=   104857600 cpu:               0.0 elap:               0.0
 (Enter /Users/asuyarger/Applications/G16/g16/l703.exe)
 Integral derivatives from FoFJK, PRISM(SPDF).
 Compute integral first derivatives, UseDBF=F ICtDFT=           0.
 Calling FoFJK, ICntrl=      2127 FMM=F ISym2X=1 I1Cent= 0 IOpClX= 0 NMat=1 NMatS=1 NMatT=0.
 FoFJK:  IHMeth=40 ICntrl=    2127 DoSepK=F KAlg= 0 I1Cent=           0 FoldK=F
 IRaf=         0 NMat=       1 IRICut=       1 DoRegI=T DoRafI=F ISym2E= 1 IDoP0=3 IntGTp=3.
 FoFCou: FMM=F IPFlag=           0 FMFlag=      100000 FMFlg1=         800
         NFxFlg=           0 DoJE=F BraDBF=F KetDBF=F FulRan=T
         wScrn=  0.000000 ICntrl=      2127 IOpCl=  0 I1Cent=           0 NGrid=           0
         NMat0=    1 NMatS0=      1 NMatT0=    0 NMatD0=    1 NMtDS0=    0 NMtDT0=    0
 Petite list used in FoFCou.
 Leave Link  703 at Fri Sep  6 10:15:43 2024, MaxMem=   104857600 cpu:               0.0 elap:               0.0
 (Enter /Users/asuyarger/Applications/G16/g16/l716.exe)
 Dipole        =-1.85575725D-16-2.40746684D-16 1.95399252D-14
 ***** Axes restored to original set *****
 -------------------------------------------------------------------
 Center     Atomic                   Forces (Hartrees/Bohr)
 Number     Number              X              Y              Z
 -------------------------------------------------------------------
      1        6          -0.000000000    0.000000000   -0.000000000
      2        8          -0.149083416   -0.000000000    0.000000000
      3        8           0.149083416   -0.000000000    0.000000000
 -------------------------------------------------------------------
 Cartesian Forces:  Max     0.149083416 RMS     0.070278596
 Leave Link  716 at Fri Sep  6 10:15:43 2024, MaxMem=   104857600 cpu:               0.0 elap:               0.0
 (Enter /Users/asuyarger/Applications/G16/g16/l103.exe)

 GradGradGradGradGradGradGradGradGradGradGradGradGradGradGradGradGradGrad
 Berny optimization.
 FormGI is forming the generalized inverse of G from B-inverse, IUseBI=4.
 Internal  Forces:  Max     0.149083416 RMS     0.105417895
 Search for a local minimum.
 Step number   1 out of a maximum of   20
 All quantities printed in internal units (Hartrees-Bohrs-Radians)
 RMS Force = .10542D+00 SwitMx=.10000D-02 MixMth= 1
 Mixed Optimization -- RFO/linear search
 Second derivative matrix not updated -- first step.
 The second derivative matrix:
                          R1        R2        A1        A2
           R1           0.80209
           R2           0.00000   0.80209
           A1           0.00000   0.00000   0.03565
           A2           0.00000   0.00000   0.00000   0.03565
 ITU=  0
     Eigenvalues ---    0.03565   0.03565   0.80209   0.80209
 RFO step:  Lambda=-5.20432173D-02 EMin= 3.56487692D-02
 Linear search not attempted -- first point.
 Iteration  1 RMS(Cart)=  0.12342122 RMS(Int)=  0.00000000
 Iteration  2 RMS(Cart)=  0.00000000 RMS(Int)=  0.00000000
 ITry= 1 IFail=0 DXMaxC= 1.75D-01 DCOld= 1.00D+10 DXMaxT= 3.00D-01 DXLimC= 3.00D+00 Rises=F
 ClnCor:  largest displacement from symmetrization is 1.19D-14 for atom     1.
 Variable       Old X    -DE/DX   Delta X   Delta X   Delta X     New X
                                 (Linear)    (Quad)   (Total)
    R1        2.37803  -0.14908   0.00000  -0.17454  -0.17454   2.20349
    R2        2.37803  -0.14908   0.00000  -0.17454  -0.17454   2.20349
    A1        3.14159  -0.00000   0.00000  -0.00000   0.00000   3.14159
    A2        3.14159  -0.00000   0.00000  -0.00000   0.00000   3.14159
         Item               Value     Threshold  Converged?
 Maximum Force            0.149083     0.000015     NO 
 RMS     Force            0.105418     0.000010     NO 
 Maximum Displacement     0.174544     0.000060     NO 
 RMS     Displacement     0.123421     0.000040     NO 
 Predicted change in Energy=-2.760714D-02
 Lowest energy point so far.  Saving SCF results.
 GradGradGradGradGradGradGradGradGradGradGradGradGradGradGradGradGradGrad

 Leave Link  103 at Fri Sep  6 10:15:43 2024, MaxMem=   104857600 cpu:               0.0 elap:               0.0
 (Enter /Users/asuyarger/Applications/G16/g16/l202.exe)
                          Input orientation:                          
 ---------------------------------------------------------------------
 Center     Atomic      Atomic             Coordinates (Angstroms)
 Number     Number       Type             X           Y           Z
 ---------------------------------------------------------------------
      1          6           0        2.920434    0.678119    0.000000
      2          8           0        4.086469    0.678119   -0.000000
      3          8           0        1.754399    0.678119   -0.000000
 ---------------------------------------------------------------------
                    Distance matrix (angstroms):
                    1          2          3
     1  C    0.000000
     2  O    1.166035   0.000000
     3  O    1.166035   2.332071   0.000000
 Stoichiometry    CO2
 Framework group  D*H[O(C),C*(O.O)]
 Deg. of freedom     1
 Full point group                 D*H     NOp   8
 RotChk:  IX=0 Diff= 8.66D-17
 Largest Abelian subgroup         D2H     NOp   8
 Largest concise Abelian subgroup C2      NOp   2
                         Standard orientation:                         
 ---------------------------------------------------------------------
 Center     Atomic      Atomic             Coordinates (Angstroms)
 Number     Number       Type             X           Y           Z
 ---------------------------------------------------------------------
      1          6           0        0.000000    0.000000    0.000000
      2          8           0        0.000000    0.000000    1.166035
      3          8           0        0.000000    0.000000   -1.166035
 ---------------------------------------------------------------------
 Rotational constants (GHZ):           0.0000000          11.6193510          11.6193510
 Leave Link  202 at Fri Sep  6 10:15:43 2024, MaxMem=   104857600 cpu:               0.0 elap:               0.0
 (Enter /Users/asuyarger/Applications/G16/g16/l301.exe)
 Standard basis: VSTO-6G (5D, 7F)
 Ernie: Thresh=  0.10000D-02 Tol=  0.10000D-05 Strict=F.
  NNHCO=     0 NNPyr=     0 NCTC=     0               EPep=         0.000000000
    EC=        22.501354138  ECS=         1.057460900   EG=         0.049473690
   EHC=         0.001112564  EAt=       -25.337042388  AtH=         0.462157166
 EPDDG=         0.000000000  ECC=        23.609401292 EAtT=        25.799199554
 There are     3 symmetry adapted cartesian basis functions of AG  symmetry.
 There are     0 symmetry adapted cartesian basis functions of B1G symmetry.
 There are     1 symmetry adapted cartesian basis functions of B2G symmetry.
 There are     1 symmetry adapted cartesian basis functions of B3G symmetry.
 There are     0 symmetry adapted cartesian basis functions of AU  symmetry.
 There are     3 symmetry adapted cartesian basis functions of B1U symmetry.
 There are     2 symmetry adapted cartesian basis functions of B2U symmetry.
 There are     2 symmetry adapted cartesian basis functions of B3U symmetry.
 There are     3 symmetry adapted basis functions of AG  symmetry.
 There are     0 symmetry adapted basis functions of B1G symmetry.
 There are     1 symmetry adapted basis functions of B2G symmetry.
 There are     1 symmetry adapted basis functions of B3G symmetry.
 There are     0 symmetry adapted basis functions of AU  symmetry.
 There are     3 symmetry adapted basis functions of B1U symmetry.
 There are     2 symmetry adapted basis functions of B2U symmetry.
 There are     2 symmetry adapted basis functions of B3U symmetry.
    12 basis functions,    72 primitive gaussians,    12 cartesian basis functions
     8 alpha electrons        8 beta electrons
       nuclear repulsion energy        49.4086008452 Hartrees.
 IExCor=    0 DFT=F Ex=HF Corr=None ExCW=0 ScaHFX=  1.000000
 ScaDFX=  1.000000  1.000000  1.000000  1.000000 ScalE2=  1.000000  1.000000
 IRadAn=      5 IRanWt=     -1 IRanGd=            0 ICorTp=0 IEmpDi=  4
 Integral buffers will be    131072 words long.
 Regular integral format.
 Two-electron integral symmetry is turned off.
 Leave Link  301 at Fri Sep  6 10:15:44 2024, MaxMem=   104857600 cpu:               0.0 elap:               0.0
 (Enter /Users/asuyarger/Applications/G16/g16/l302.exe)
 Do NDO integrals.
 NPDir=0 NMtPBC=     1 NCelOv=     1 NCel=       1 NClECP=     1 NCelD=      1
         NCelK=      1 NCelE2=     1 NClLst=     1 CellRange=     0.0.
 One-electron integrals computed using PRISM.
 NBasis=    12 RedAO= T EigKep=  1.00D+00  NBF=     3     0     1     1     0     3     2     2
 NBsUse=    12 1.00D-06 EigRej= -1.00D+00 NBFU=     3     0     1     1     0     3     2     2
 Leave Link  302 at Fri Sep  6 10:15:44 2024, MaxMem=   104857600 cpu:               0.0 elap:               0.0
 (Enter /Users/asuyarger/Applications/G16/g16/l303.exe)
 DipDrv:  MaxL=1.
 Leave Link  303 at Fri Sep  6 10:15:44 2024, MaxMem=   104857600 cpu:               0.0 elap:               0.0
 (Enter /Users/asuyarger/Applications/G16/g16/l401.exe)
 Initial guess from the checkpoint file:  "CO2_PM6_Opt_Freq_Full_NBO.chk"
 B after Tr=    -0.000000    0.000000    0.000000
         Rot=    1.000000    0.000000    0.000000    0.000000 Ang=   0.00 deg.
 Guess basis will be translated and rotated to current coordinates.
 JPrj=0 DoOrth=T DoCkMO=T.
 Initial guess orbital symmetries:
       Occupied  (SGU) (SGG) (SGG) (SGU) (PIU) (PIU) (PIG) (PIG)
       Virtual   (PIU) (PIU) (SGG) (SGU)
 The electronic state of the initial guess is 1-SGG.
 Leave Link  401 at Fri Sep  6 10:15:44 2024, MaxMem=   104857600 cpu:               0.0 elap:               0.0
 (Enter /Users/asuyarger/Applications/G16/g16/l502.exe)
 Keep J ints in memory in canonical form, NReq=859527.
 FoFCou: FMM=F IPFlag=           0 FMFlag=           0 FMFlg1=           0
         NFxFlg=           0 DoJE=F BraDBF=F KetDBF=F FulRan=T
         wScrn=  0.000000 ICntrl=       600 IOpCl=  2 I1Cent=           0 NGrid=           0
         NMat0=    1 NMatS0=     30 NMatT0=    0 NMatD0=    1 NMtDS0=    0 NMtDT0=    0
 Symmetry not used in FoFCou.
 Two-electron integral symmetry not used.
 Closed shell SCF:
 Using DIIS extrapolation, IDIIS=  1040.
 Overlap will be assumed to be unity.
 NGot=   104857600 LenX=   104796874 LenY=   104795992
 Requested convergence on RMS density matrix=1.00D-08 within 128 cycles.
 Requested convergence on MAX density matrix=1.00D-06.
 Requested convergence on             energy=1.00D-06.
 No special actions if energy rises.
 An orbital has undefined symmetry, so N**3 symmetry is turned off.

 Cycle   1  Pass 1  IDiag  1:
 E=-0.124281267865278    
 DIIS: error= 1.42D-02 at cycle   1 NSaved=   1.
 NSaved= 1 IEnMin= 1 EnMin=-0.124281267865278     IErMin= 1 ErrMin= 1.42D-02
 ErrMax= 1.42D-02  0.00D+00 EMaxC= 1.00D-01 BMatC= 3.59D-03 BMatP= 3.59D-03
 IDIUse=3 WtCom= 8.58D-01 WtEn= 1.42D-01
 Coeff-Com:  0.100D+01
 Coeff-En:   0.100D+01
 Coeff:      0.100D+01
 GapD=    2.000 DampG=2.000 DampE=0.500 DampFc=1.0000 IDamp=-1.
 RMSDP=7.25D-03 MaxDP=2.59D-02              OVMax= 0.00D+00

 Cycle   2  Pass 1  IDiag  3:
 E=-0.133634422940347     Delta-E=       -0.009353155075 Rises=F Damp=F
 DIIS: error= 3.82D-03 at cycle   2 NSaved=   2.
 NSaved= 2 IEnMin= 2 EnMin=-0.133634422940347     IErMin= 2 ErrMin= 3.82D-03
 ErrMax= 3.82D-03  0.00D+00 EMaxC= 1.00D-01 BMatC= 3.63D-04 BMatP= 3.59D-03
 IDIUse=3 WtCom= 9.62D-01 WtEn= 3.82D-02
 Coeff-Com: -0.419D+00 0.142D+01
 Coeff-En:   0.000D+00 0.100D+01
 Coeff:     -0.403D+00 0.140D+01
 Gap=     0.489 Goal=   None    Shift=    0.000
 RMSDP=3.63D-03 MaxDP=1.61D-02 DE=-9.35D-03 OVMax= 2.10D-02

 Cycle   3  Pass 1  IDiag  3:
 E=-0.134913406100687     Delta-E=       -0.001278983160 Rises=F Damp=F
 DIIS: error= 6.25D-04 at cycle   3 NSaved=   3.
 NSaved= 3 IEnMin= 3 EnMin=-0.134913406100687     IErMin= 3 ErrMin= 6.25D-04
 ErrMax= 6.25D-04  0.00D+00 EMaxC= 1.00D-01 BMatC= 6.76D-06 BMatP= 3.63D-04
 IDIUse=3 WtCom= 9.94D-01 WtEn= 6.25D-03
 Coeff-Com:  0.129D+00-0.541D+00 0.141D+01
 Coeff-En:   0.000D+00 0.000D+00 0.100D+01
 Coeff:      0.129D+00-0.538D+00 0.141D+01
 Gap=     0.488 Goal=   None    Shift=    0.000
 RMSDP=6.34D-04 MaxDP=3.30D-03 DE=-1.28D-03 OVMax= 4.44D-03

 Cycle   4  Pass 1  IDiag  3:
 E=-0.134941516947606     Delta-E=       -0.000028110847 Rises=F Damp=F
 DIIS: error= 6.02D-05 at cycle   4 NSaved=   4.
 NSaved= 4 IEnMin= 4 EnMin=-0.134941516947606     IErMin= 4 ErrMin= 6.02D-05
 ErrMax= 6.02D-05  0.00D+00 EMaxC= 1.00D-01 BMatC= 6.01D-08 BMatP= 6.76D-06
 IDIUse=1 WtCom= 1.00D+00 WtEn= 0.00D+00
 Coeff-Com: -0.623D-01 0.261D+00-0.659D+00 0.146D+01
 Coeff:     -0.623D-01 0.261D+00-0.659D+00 0.146D+01
 Gap=     0.488 Goal=   None    Shift=    0.000
 RMSDP=4.95D-05 MaxDP=2.64D-04 DE=-2.81D-05 OVMax= 2.72D-04

 Cycle   5  Pass 1  IDiag  3:
 E=-0.134941734585340     Delta-E=       -0.000000217638 Rises=F Damp=F
 DIIS: error= 8.64D-06 at cycle   5 NSaved=   5.
 NSaved= 5 IEnMin= 5 EnMin=-0.134941734585340     IErMin= 5 ErrMin= 8.64D-06
 ErrMax= 8.64D-06  0.00D+00 EMaxC= 1.00D-01 BMatC= 2.58D-09 BMatP= 6.01D-08
 IDIUse=1 WtCom= 1.00D+00 WtEn= 0.00D+00
 Coeff-Com: -0.983D-02 0.403D-01-0.112D+00 0.158D+00 0.924D+00
 Coeff:     -0.983D-02 0.403D-01-0.112D+00 0.158D+00 0.924D+00
 Gap=     0.489 Goal=   None    Shift=    0.000
 RMSDP=1.03D-05 MaxDP=4.35D-05 DE=-2.18D-07 OVMax= 7.51D-05

 Cycle   6  Pass 1  IDiag  3:
 E=-0.134941745183987     Delta-E=       -0.000000010599 Rises=F Damp=F
 DIIS: error= 2.64D-06 at cycle   6 NSaved=   6.
 NSaved= 6 IEnMin= 6 EnMin=-0.134941745183987     IErMin= 6 ErrMin= 2.64D-06
 ErrMax= 2.64D-06  0.00D+00 EMaxC= 1.00D-01 BMatC= 1.80D-10 BMatP= 2.58D-09
 IDIUse=1 WtCom= 1.00D+00 WtEn= 0.00D+00
 Coeff-Com: -0.751D-03 0.314D-02-0.273D-02 0.171D-01-0.563D+00 0.155D+01
 Coeff:     -0.751D-03 0.314D-02-0.273D-02 0.171D-01-0.563D+00 0.155D+01
 Gap=     0.489 Goal=   None    Shift=    0.000
 RMSDP=3.33D-06 MaxDP=1.55D-05 DE=-1.06D-08 OVMax= 1.59D-05

 Cycle   7  Pass 1  IDiag  3:
 E=-0.134941745951338     Delta-E=       -0.000000000767 Rises=F Damp=F
 DIIS: error= 1.35D-07 at cycle   7 NSaved=   7.
 NSaved= 7 IEnMin= 7 EnMin=-0.134941745951338     IErMin= 7 ErrMin= 1.35D-07
 ErrMax= 1.35D-07  0.00D+00 EMaxC= 1.00D-01 BMatC= 4.85D-13 BMatP= 1.80D-10
 IDIUse=1 WtCom= 1.00D+00 WtEn= 0.00D+00
 Coeff-Com:  0.835D-06-0.194D-04-0.125D-02-0.554D-04 0.133D+00-0.406D+00
 Coeff-Com:  0.127D+01
 Coeff:      0.835D-06-0.194D-04-0.125D-02-0.554D-04 0.133D+00-0.406D+00
 Coeff:      0.127D+01
 Gap=     0.489 Goal=   None    Shift=    0.000
 RMSDP=1.60D-07 MaxDP=5.64D-07 DE=-7.67D-10 OVMax= 7.80D-07

 Cycle   8  Pass 1  IDiag  3:
 E=-0.134941745953171     Delta-E=       -0.000000000002 Rises=F Damp=F
 DIIS: error= 2.37D-09 at cycle   8 NSaved=   8.
 NSaved= 8 IEnMin= 8 EnMin=-0.134941745953171     IErMin= 8 ErrMin= 2.37D-09
 ErrMax= 2.37D-09  0.00D+00 EMaxC= 1.00D-01 BMatC= 1.12D-16 BMatP= 4.85D-13
 IDIUse=1 WtCom= 1.00D+00 WtEn= 0.00D+00
 Coeff-Com:  0.654D-07-0.567D-06 0.199D-04-0.149D-04-0.172D-02 0.538D-02
 Coeff-Com: -0.293D-01 0.103D+01
 Coeff:      0.654D-07-0.567D-06 0.199D-04-0.149D-04-0.172D-02 0.538D-02
 Coeff:     -0.293D-01 0.103D+01
 Gap=     0.489 Goal=   None    Shift=    0.000
 RMSDP=2.04D-09 MaxDP=6.24D-09 DE=-1.83D-12 OVMax= 1.10D-08

 Cycle   9  Pass 2  IDiag  1:
 SCF Done:  E(RPM6) = -0.134941745953     A.U. after    9 cycles
            NFock=  8  Conv=0.20D-08     -V/T= 0.9969
 KE=-4.316755140951D+01 PE=-4.344433126339D+01 EE= 3.706834008178D+01
 Leave Link  502 at Fri Sep  6 10:15:44 2024, MaxMem=   104857600 cpu:               0.0 elap:               0.0
 (Enter /Users/asuyarger/Applications/G16/g16/l701.exe)
 ... and contract with generalized density number  0.
 Compute integral first derivatives.
 Leave Link  701 at Fri Sep  6 10:15:44 2024, MaxMem=   104857600 cpu:               0.0 elap:               0.0
 (Enter /Users/asuyarger/Applications/G16/g16/l702.exe)
 L702 exits ... SP integral derivatives will be done elsewhere.
 Leave Link  702 at Fri Sep  6 10:15:44 2024, MaxMem=   104857600 cpu:               0.0 elap:               0.0
 (Enter /Users/asuyarger/Applications/G16/g16/l703.exe)
 Integral derivatives from FoFJK, PRISM(SPDF).
 Compute integral first derivatives, UseDBF=F ICtDFT=           0.
 Calling FoFJK, ICntrl=      2127 FMM=F ISym2X=1 I1Cent= 0 IOpClX= 0 NMat=1 NMatS=1 NMatT=0.
 FoFJK:  IHMeth=40 ICntrl=    2127 DoSepK=F KAlg= 0 I1Cent=           0 FoldK=F
 IRaf=         0 NMat=       1 IRICut=       1 DoRegI=T DoRafI=F ISym2E= 1 IDoP0=3 IntGTp=3.
 FoFCou: FMM=F IPFlag=           0 FMFlag=      100000 FMFlg1=         800
         NFxFlg=           0 DoJE=F BraDBF=F KetDBF=F FulRan=T
         wScrn=  0.000000 ICntrl=      2127 IOpCl=  0 I1Cent=           0 NGrid=           0
         NMat0=    1 NMatS0=      1 NMatT0=    0 NMatD0=    1 NMtDS0=    0 NMtDT0=    0
 Petite list used in FoFCou.
 Leave Link  703 at Fri Sep  6 10:15:44 2024, MaxMem=   104857600 cpu:               0.0 elap:               0.0
 (Enter /Users/asuyarger/Applications/G16/g16/l716.exe)
 Dipole        =-1.81321615D-16-3.49770091D-16-7.10542736D-15
 ***** Axes restored to original set *****
 -------------------------------------------------------------------
 Center     Atomic                   Forces (Hartrees/Bohr)
 Number     Number              X              Y              Z
 -------------------------------------------------------------------
      1        6           0.000000000    0.000000000   -0.000000000
      2        8           0.009174984   -0.000000000   -0.000000000
      3        8          -0.009174984    0.000000000    0.000000000
 -------------------------------------------------------------------
 Cartesian Forces:  Max     0.009174984 RMS     0.004325129
 Leave Link  716 at Fri Sep  6 10:15:44 2024, MaxMem=   104857600 cpu:               0.0 elap:               0.0
 (Enter /Users/asuyarger/Applications/G16/g16/l103.exe)

 GradGradGradGradGradGradGradGradGradGradGradGradGradGradGradGradGradGrad
 Berny optimization.
 Using GEDIIS/GDIIS optimizer.
 Red2BG is reusing G-inverse.
 Internal  Forces:  Max     0.009174984 RMS     0.006487694
 Search for a local minimum.
 Step number   2 out of a maximum of   20
 All quantities printed in internal units (Hartrees-Bohrs-Radians)
 RMS Force = .64877D-02 SwitMx=.10000D-02 MixMth= 1
 Mixed Optimization -- RFO/linear search
 Update second derivatives using D2CorX and points    1    2
 DE= -2.70D-02 DEPred=-2.76D-02 R= 9.77D-01
 TightC=F SS=  1.41D+00  RLast= 2.47D-01 DXNew= 5.0454D-01 7.4053D-01
 Trust test= 9.77D-01 RLast= 2.47D-01 DXMaxT set to 5.05D-01
 The second derivative matrix:
                          R1        R2        A1        A2
           R1           0.85439
           R2           0.05230   0.85439
           A1           0.00000   0.00000   0.03565
           A2           0.00000   0.00000   0.00000   0.03565
 ITU=  1  0
 Use linear search instead of GDIIS.
     Eigenvalues ---    0.03565   0.03565   0.80209   0.90670
 RFO step:  Lambda= 0.00000000D+00 EMin= 3.56487692D-02
 Quartic linear search produced a step of -0.04541.
 Iteration  1 RMS(Cart)=  0.00560507 RMS(Int)=  0.00000000
 Iteration  2 RMS(Cart)=  0.00000000 RMS(Int)=  0.00000000
 ITry= 1 IFail=0 DXMaxC= 7.93D-03 DCOld= 1.00D+10 DXMaxT= 5.05D-01 DXLimC= 3.00D+00 Rises=F
 ClnCor:  largest displacement from symmetrization is 2.02D-14 for atom     1.
 Variable       Old X    -DE/DX   Delta X   Delta X   Delta X     New X
                                 (Linear)    (Quad)   (Total)
    R1        2.20349   0.00917   0.00793  -0.00000   0.00793   2.21141
    R2        2.20349   0.00917   0.00793   0.00000   0.00793   2.21141
    A1        3.14159  -0.00000   0.00000  -0.00000   0.00000   3.14159
    A2        3.14159  -0.00000   0.00000  -0.00000   0.00000   3.14159
         Item               Value     Threshold  Converged?
 Maximum Force            0.009175     0.000015     NO 
 RMS     Force            0.006488     0.000010     NO 
 Maximum Displacement     0.007927     0.000060     NO 
 RMS     Displacement     0.005605     0.000040     NO 
 Predicted change in Energy=-8.848491D-05
 Lowest energy point so far.  Saving SCF results.
 GradGradGradGradGradGradGradGradGradGradGradGradGradGradGradGradGradGrad

 Leave Link  103 at Fri Sep  6 10:15:44 2024, MaxMem=   104857600 cpu:               0.0 elap:               0.0
 (Enter /Users/asuyarger/Applications/G16/g16/l202.exe)
                          Input orientation:                          
 ---------------------------------------------------------------------
 Center     Atomic      Atomic             Coordinates (Angstroms)
 Number     Number       Type             X           Y           Z
 ---------------------------------------------------------------------
      1          6           0        2.920434    0.678119   -0.000000
      2          8           0        4.090664    0.678119    0.000000
      3          8           0        1.750204    0.678119   -0.000000
 ---------------------------------------------------------------------
                    Distance matrix (angstroms):
                    1          2          3
     1  C    0.000000
     2  O    1.170230   0.000000
     3  O    1.170230   2.340460   0.000000
 Stoichiometry    CO2
 Framework group  D*H[O(C),C*(O.O)]
 Deg. of freedom     1
 Full point group                 D*H     NOp   8
 RotChk:  IX=0 Diff= 8.66D-17
 Largest Abelian subgroup         D2H     NOp   8
 Largest concise Abelian subgroup C2      NOp   2
                         Standard orientation:                         
 ---------------------------------------------------------------------
 Center     Atomic      Atomic             Coordinates (Angstroms)
 Number     Number       Type             X           Y           Z
 ---------------------------------------------------------------------
      1          6           0        0.000000    0.000000    0.000000
      2          8           0        0.000000    0.000000    1.170230
      3          8           0        0.000000    0.000000   -1.170230
 ---------------------------------------------------------------------
 Rotational constants (GHZ):           0.0000000          11.5362016          11.5362016
 Leave Link  202 at Fri Sep  6 10:15:44 2024, MaxMem=   104857600 cpu:               0.0 elap:               0.0
 (Enter /Users/asuyarger/Applications/G16/g16/l301.exe)
 Standard basis: VSTO-6G (5D, 7F)
 Ernie: Thresh=  0.10000D-02 Tol=  0.10000D-05 Strict=F.
  NNHCO=     0 NNPyr=     0 NCTC=     0               EPep=         0.000000000
    EC=        22.454237514  ECS=         1.042613235   EG=         0.049640921
   EHC=         0.001065641  EAt=       -25.337042388  AtH=         0.462157166
 EPDDG=         0.000000000  ECC=        23.547557311 EAtT=        25.799199554
 There are     3 symmetry adapted cartesian basis functions of AG  symmetry.
 There are     0 symmetry adapted cartesian basis functions of B1G symmetry.
 There are     1 symmetry adapted cartesian basis functions of B2G symmetry.
 There are     1 symmetry adapted cartesian basis functions of B3G symmetry.
 There are     0 symmetry adapted cartesian basis functions of AU  symmetry.
 There are     3 symmetry adapted cartesian basis functions of B1U symmetry.
 There are     2 symmetry adapted cartesian basis functions of B2U symmetry.
 There are     2 symmetry adapted cartesian basis functions of B3U symmetry.
 There are     3 symmetry adapted basis functions of AG  symmetry.
 There are     0 symmetry adapted basis functions of B1G symmetry.
 There are     1 symmetry adapted basis functions of B2G symmetry.
 There are     1 symmetry adapted basis functions of B3G symmetry.
 There are     0 symmetry adapted basis functions of AU  symmetry.
 There are     3 symmetry adapted basis functions of B1U symmetry.
 There are     2 symmetry adapted basis functions of B2U symmetry.
 There are     2 symmetry adapted basis functions of B3U symmetry.
    12 basis functions,    72 primitive gaussians,    12 cartesian basis functions
     8 alpha electrons        8 beta electrons
       nuclear repulsion energy        49.3467568647 Hartrees.
 IExCor=    0 DFT=F Ex=HF Corr=None ExCW=0 ScaHFX=  1.000000
 ScaDFX=  1.000000  1.000000  1.000000  1.000000 ScalE2=  1.000000  1.000000
 IRadAn=      5 IRanWt=     -1 IRanGd=            0 ICorTp=0 IEmpDi=  4
 Integral buffers will be    131072 words long.
 Regular integral format.
 Two-electron integral symmetry is turned off.
 Leave Link  301 at Fri Sep  6 10:15:44 2024, MaxMem=   104857600 cpu:               0.0 elap:               0.0
 (Enter /Users/asuyarger/Applications/G16/g16/l302.exe)
 Do NDO integrals.
 NPDir=0 NMtPBC=     1 NCelOv=     1 NCel=       1 NClECP=     1 NCelD=      1
         NCelK=      1 NCelE2=     1 NClLst=     1 CellRange=     0.0.
 One-electron integrals computed using PRISM.
 NBasis=    12 RedAO= T EigKep=  1.00D+00  NBF=     3     0     1     1     0     3     2     2
 NBsUse=    12 1.00D-06 EigRej= -1.00D+00 NBFU=     3     0     1     1     0     3     2     2
 Leave Link  302 at Fri Sep  6 10:15:44 2024, MaxMem=   104857600 cpu:               0.0 elap:               0.0
 (Enter /Users/asuyarger/Applications/G16/g16/l303.exe)
 DipDrv:  MaxL=1.
 Leave Link  303 at Fri Sep  6 10:15:44 2024, MaxMem=   104857600 cpu:               0.0 elap:               0.0
 (Enter /Users/asuyarger/Applications/G16/g16/l401.exe)
 Initial guess from the checkpoint file:  "CO2_PM6_Opt_Freq_Full_NBO.chk"
 B after Tr=     0.000000    0.000000    0.000000
         Rot=    1.000000    0.000000    0.000000    0.000000 Ang=   0.00 deg.
 Guess basis will be translated and rotated to current coordinates.
 JPrj=0 DoOrth=T DoCkMO=T.
 Initial guess orbital symmetries:
       Occupied  (SGU) (SGG) (SGG) (PIU) (PIU) (SGU) (PIG) (PIG)
       Virtual   (PIU) (PIU) (SGG) (SGU)
 The electronic state of the initial guess is 1-SGG.
 Leave Link  401 at Fri Sep  6 10:15:44 2024, MaxMem=   104857600 cpu:               0.0 elap:               0.0
 (Enter /Users/asuyarger/Applications/G16/g16/l502.exe)
 Keep J ints in memory in canonical form, NReq=859527.
 FoFCou: FMM=F IPFlag=           0 FMFlag=           0 FMFlg1=           0
         NFxFlg=           0 DoJE=F BraDBF=F KetDBF=F FulRan=T
         wScrn=  0.000000 ICntrl=       600 IOpCl=  2 I1Cent=           0 NGrid=           0
         NMat0=    1 NMatS0=     30 NMatT0=    0 NMatD0=    1 NMtDS0=    0 NMtDT0=    0
 Symmetry not used in FoFCou.
 Two-electron integral symmetry not used.
 Closed shell SCF:
 Using DIIS extrapolation, IDIIS=  1040.
 Overlap will be assumed to be unity.
 NGot=   104857600 LenX=   104796874 LenY=   104795992
 Requested convergence on RMS density matrix=1.00D-08 within 128 cycles.
 Requested convergence on MAX density matrix=1.00D-06.
 Requested convergence on             energy=1.00D-06.
 No special actions if energy rises.
 An orbital has undefined symmetry, so N**3 symmetry is turned off.

 Cycle   1  Pass 1  IDiag  1:
 E=-0.134988393838320    
 DIIS: error= 6.76D-04 at cycle   1 NSaved=   1.
 NSaved= 1 IEnMin= 1 EnMin=-0.134988393838320     IErMin= 1 ErrMin= 6.76D-04
 ErrMax= 6.76D-04  0.00D+00 EMaxC= 1.00D-01 BMatC= 8.02D-06 BMatP= 8.02D-06
 IDIUse=3 WtCom= 9.93D-01 WtEn= 6.76D-03
 Coeff-Com:  0.100D+01
 Coeff-En:   0.100D+01
 Coeff:      0.100D+01
 RMSDP=3.53D-04 MaxDP=1.30D-03              OVMax= 0.00D+00

 Cycle   2  Pass 1  IDiag  3:
 E=-0.135010386784288     Delta-E=       -0.000021992946 Rises=F Damp=F
 DIIS: error= 2.00D-04 at cycle   2 NSaved=   2.
 NSaved= 2 IEnMin= 2 EnMin=-0.135010386784288     IErMin= 2 ErrMin= 2.00D-04
 ErrMax= 2.00D-04  0.00D+00 EMaxC= 1.00D-01 BMatC= 9.34D-07 BMatP= 8.02D-06
 IDIUse=3 WtCom= 9.98D-01 WtEn= 2.00D-03
 Coeff-Com: -0.457D+00 0.146D+01
 Coeff-En:   0.000D+00 0.100D+01
 Coeff:     -0.456D+00 0.146D+01
 Gap=     0.487 Goal=   None    Shift=    0.000
 RMSDP=1.94D-04 MaxDP=8.76D-04 DE=-2.20D-05 OVMax= 1.20D-03

 Cycle   3  Pass 1  IDiag  3:
 E=-0.135013833969950     Delta-E=       -0.000003447186 Rises=F Damp=F
 DIIS: error= 3.37D-05 at cycle   3 NSaved=   3.
 NSaved= 3 IEnMin= 3 EnMin=-0.135013833969950     IErMin= 3 ErrMin= 3.37D-05
 ErrMax= 3.37D-05  0.00D+00 EMaxC= 1.00D-01 BMatC= 1.48D-08 BMatP= 9.34D-07
 IDIUse=1 WtCom= 1.00D+00 WtEn= 0.00D+00
 Coeff-Com:  0.129D+00-0.483D+00 0.135D+01
 Coeff:      0.129D+00-0.483D+00 0.135D+01
 Gap=     0.487 Goal=   None    Shift=    0.000
 RMSDP=2.84D-05 MaxDP=1.45D-04 DE=-3.45D-06 OVMax= 2.14D-04

 Cycle   4  Pass 1  IDiag  3:
 E=-0.135013895601453     Delta-E=       -0.000000061632 Rises=F Damp=F
 DIIS: error= 3.87D-06 at cycle   4 NSaved=   4.
 NSaved= 4 IEnMin= 4 EnMin=-0.135013895601453     IErMin= 4 ErrMin= 3.87D-06
 ErrMax= 3.87D-06  0.00D+00 EMaxC= 1.00D-01 BMatC= 1.94D-10 BMatP= 1.48D-08
 IDIUse=1 WtCom= 1.00D+00 WtEn= 0.00D+00
 Coeff-Com: -0.448D-01 0.171D+00-0.532D+00 0.141D+01
 Coeff:     -0.448D-01 0.171D+00-0.532D+00 0.141D+01
 Gap=     0.487 Goal=   None    Shift=    0.000
 RMSDP=3.16D-06 MaxDP=1.56D-05 DE=-6.16D-08 OVMax= 2.47D-05

 Cycle   5  Pass 1  IDiag  3:
 E=-0.135013896391996     Delta-E=       -0.000000000791 Rises=F Damp=F
 DIIS: error= 3.96D-07 at cycle   5 NSaved=   5.
 NSaved= 5 IEnMin= 5 EnMin=-0.135013896391996     IErMin= 5 ErrMin= 3.96D-07
 ErrMax= 3.96D-07  0.00D+00 EMaxC= 1.00D-01 BMatC= 3.94D-12 BMatP= 1.94D-10
 IDIUse=1 WtCom= 1.00D+00 WtEn= 0.00D+00
 Coeff-Com:  0.188D-01-0.721D-01 0.233D+00-0.697D+00 0.152D+01
 Coeff:      0.188D-01-0.721D-01 0.233D+00-0.697D+00 0.152D+01
 Gap=     0.487 Goal=   None    Shift=    0.000
 RMSDP=5.20D-07 MaxDP=2.52D-06 DE=-7.91D-10 OVMax= 2.31D-06

 Cycle   6  Pass 1  IDiag  3:
 E=-0.135013896409546     Delta-E=       -0.000000000018 Rises=F Damp=F
 DIIS: error= 1.60D-08 at cycle   6 NSaved=   6.
 NSaved= 6 IEnMin= 6 EnMin=-0.135013896409546     IErMin= 6 ErrMin= 1.60D-08
 ErrMax= 1.60D-08  0.00D+00 EMaxC= 1.00D-01 BMatC= 6.00D-15 BMatP= 3.94D-12
 IDIUse=1 WtCom= 1.00D+00 WtEn= 0.00D+00
 Coeff-Com: -0.586D-02 0.224D-01-0.728D-01 0.220D+00-0.500D+00 0.134D+01
 Coeff:     -0.586D-02 0.224D-01-0.728D-01 0.220D+00-0.500D+00 0.134D+01
 Gap=     0.487 Goal=   None    Shift=    0.000
 RMSDP=1.77D-08 MaxDP=6.63D-08 DE=-1.76D-11 OVMax= 9.20D-08

 Cycle   7  Pass 1  IDiag  3:
 E=-0.135013896409539     Delta-E=        0.000000000000 Rises=F Damp=F
 DIIS: error= 1.93D-09 at cycle   7 NSaved=   7.
 NSaved= 7 IEnMin= 6 EnMin=-0.135013896409546     IErMin= 7 ErrMin= 1.93D-09
 ErrMax= 1.93D-09  0.00D+00 EMaxC= 1.00D-01 BMatC= 1.33D-16 BMatP= 6.00D-15
 IDIUse=1 WtCom= 1.00D+00 WtEn= 0.00D+00
 Coeff-Com: -0.879D-07 0.182D-05 0.835D-04-0.653D-03 0.460D-02 0.284D-01
 Coeff-Com:  0.968D+00
 Coeff:     -0.879D-07 0.182D-05 0.835D-04-0.653D-03 0.460D-02 0.284D-01
 Coeff:      0.968D+00
 Gap=     0.487 Goal=   None    Shift=    0.000
 RMSDP=2.78D-09 MaxDP=1.04D-08 DE= 7.11D-15 OVMax= 1.46D-08

 Cycle   8  Pass 2  IDiag  1:
 SCF Done:  E(RPM6) = -0.135013896410     A.U. after    8 cycles
            NFock=  7  Conv=0.28D-08     -V/T= 0.9969
 KE=-4.315584315865D+01 PE=-4.335947367299D+01 EE= 3.703354607055D+01
 Leave Link  502 at Fri Sep  6 10:15:44 2024, MaxMem=   104857600 cpu:               0.0 elap:               0.0
 (Enter /Users/asuyarger/Applications/G16/g16/l701.exe)
 ... and contract with generalized density number  0.
 Compute integral first derivatives.
 Leave Link  701 at Fri Sep  6 10:15:44 2024, MaxMem=   104857600 cpu:               0.0 elap:               0.0
 (Enter /Users/asuyarger/Applications/G16/g16/l702.exe)
 L702 exits ... SP integral derivatives will be done elsewhere.
 Leave Link  702 at Fri Sep  6 10:15:44 2024, MaxMem=   104857600 cpu:               0.0 elap:               0.0
 (Enter /Users/asuyarger/Applications/G16/g16/l703.exe)
 Integral derivatives from FoFJK, PRISM(SPDF).
 Compute integral first derivatives, UseDBF=F ICtDFT=           0.
 Calling FoFJK, ICntrl=      2127 FMM=F ISym2X=1 I1Cent= 0 IOpClX= 0 NMat=1 NMatS=1 NMatT=0.
 FoFJK:  IHMeth=40 ICntrl=    2127 DoSepK=F KAlg= 0 I1Cent=           0 FoldK=F
 IRaf=         0 NMat=       1 IRICut=       1 DoRegI=T DoRafI=F ISym2E= 1 IDoP0=3 IntGTp=3.
 FoFCou: FMM=F IPFlag=           0 FMFlag=      100000 FMFlg1=         800
         NFxFlg=           0 DoJE=F BraDBF=F KetDBF=F FulRan=T
         wScrn=  0.000000 ICntrl=      2127 IOpCl=  0 I1Cent=           0 NGrid=           0
         NMat0=    1 NMatS0=      1 NMatT0=    0 NMatD0=    1 NMtDS0=    0 NMtDT0=    0
 Petite list used in FoFCou.
 Leave Link  703 at Fri Sep  6 10:15:44 2024, MaxMem=   104857600 cpu:               0.0 elap:               0.0
 (Enter /Users/asuyarger/Applications/G16/g16/l716.exe)
 Dipole        = 2.28608968D-17 1.64610977D-16 3.55271368D-15
 ***** Axes restored to original set *****
 -------------------------------------------------------------------
 Center     Atomic                   Forces (Hartrees/Bohr)
 Number     Number              X              Y              Z
 -------------------------------------------------------------------
      1        6           0.000000000    0.000000000   -0.000000000
      2        8          -0.000036589   -0.000000000    0.000000000
      3        8           0.000036589   -0.000000000    0.000000000
 -------------------------------------------------------------------
 Cartesian Forces:  Max     0.000036589 RMS     0.000017248
 Leave Link  716 at Fri Sep  6 10:15:44 2024, MaxMem=   104857600 cpu:               0.0 elap:               0.0
 (Enter /Users/asuyarger/Applications/G16/g16/l103.exe)

 GradGradGradGradGradGradGradGradGradGradGradGradGradGradGradGradGradGrad
 Berny optimization.
 Using GEDIIS/GDIIS optimizer.
 Red2BG is reusing G-inverse.
 Internal  Forces:  Max     0.000036589 RMS     0.000025873
 Search for a local minimum.
 Step number   3 out of a maximum of   20
 All quantities printed in internal units (Hartrees-Bohrs-Radians)
 RMS Force = .25873D-04 SwitMx=.10000D-02 MixMth= 2
 Mixed Optimization -- En-DIIS/RFO-DIIS
 Update second derivatives using D2CorX and points    1    2    3
 DE= -7.22D-05 DEPred=-8.85D-05 R= 8.15D-01
 TightC=F SS=  1.41D+00  RLast= 1.12D-02 DXNew= 8.4853D-01 3.3630D-02
 Trust test= 8.15D-01 RLast= 1.12D-02 DXMaxT set to 5.05D-01
 The second derivative matrix:
                          R1        R2        A1        A2
           R1           0.98209
           R2           0.18000   0.98209
           A1           0.00000   0.00000   0.03565
           A2          -0.00000  -0.00000  -0.00000   0.03565
 ITU=  1  1  0
 Use linear search instead of GDIIS.
     Eigenvalues ---    0.03565   0.03565   0.80209   1.16208
 RFO step:  Lambda= 0.00000000D+00 EMin= 3.56487692D-02
 Quartic linear search produced a step of -0.00402.
 Iteration  1 RMS(Cart)=  0.00002253 RMS(Int)=  0.00000000
 Iteration  2 RMS(Cart)=  0.00000000 RMS(Int)=  0.00000000
 ITry= 1 IFail=0 DXMaxC= 3.19D-05 DCOld= 1.00D+10 DXMaxT= 5.05D-01 DXLimC= 3.00D+00 Rises=F
 ClnCor:  largest displacement from symmetrization is 1.78D-14 for atom     1.
 Variable       Old X    -DE/DX   Delta X   Delta X   Delta X     New X
                                 (Linear)    (Quad)   (Total)
    R1        2.21141  -0.00004  -0.00003  -0.00000  -0.00003   2.21138
    R2        2.21141  -0.00004  -0.00003   0.00000  -0.00003   2.21138
    A1        3.14159  -0.00000   0.00000  -0.00000   0.00000   3.14159
    A2        3.14159  -0.00000   0.00000  -0.00000   0.00000   3.14159
         Item               Value     Threshold  Converged?
 Maximum Force            0.000037     0.000015     NO 
 RMS     Force            0.000026     0.000010     NO 
 Maximum Displacement     0.000032     0.000060     YES
 RMS     Displacement     0.000023     0.000040     YES
 Predicted change in Energy=-1.151897D-09
 Lowest energy point so far.  Saving SCF results.
 GradGradGradGradGradGradGradGradGradGradGradGradGradGradGradGradGradGrad

 Leave Link  103 at Fri Sep  6 10:15:44 2024, MaxMem=   104857600 cpu:               0.0 elap:               0.0
 (Enter /Users/asuyarger/Applications/G16/g16/l202.exe)
                          Input orientation:                          
[...]
 HyperPolar    =-6.80534580D-16-1.08024407D-19-2.27600867D-16
                 1.94394815D-18-2.45432025D-16 1.45934490D-32
                -8.40945739D-17-8.80642597D-15-2.61266703D-17
                 8.95657678D-16
 Full mass-weighted force constant matrix:
 Low frequencies ---   -0.0000   -0.0000   -0.0000    0.0514    0.0514  538.4627
 Low frequencies ---  538.4627 1377.4626 2320.8176
 Diagonal vibrational polarizability:
        4.7323732       4.7323732       4.4598589
 Diagonal vibrational hyperpolarizability:
       -0.0000000       0.0000000      -0.0000000
 Harmonic frequencies (cm**-1), IR intensities (KM/Mole), Raman scattering
 activities (A**4/AMU), depolarization ratios for plane and unpolarized
 incident light, reduced masses (AMU), force constants (mDyne/A),
 and normal coordinates:
                      1                      2                      3
                     PIU                    PIU                    SGG
 Frequencies --    538.4627               538.4627              1377.4626
 Red. masses --     12.8774                12.8774                15.9949
 Frc consts  --      2.1998                 2.1998                17.8810
 IR Inten    --     50.9867                50.9867                 0.0000
 Raman Activ --      0.0000                 0.0000                37.1159
 Depolar (P) --      0.0000                 0.0000                 0.2786
 Depolar (U) --      0.0000                 0.0000                 0.4358
  Atom  AN      X      Y      Z        X      Y      Z        X      Y      Z
     1   6     0.88   0.01   0.00    -0.01   0.88   0.00    -0.00  -0.00  -0.00
     2   8    -0.33  -0.01   0.00     0.01  -0.33   0.00    -0.00   0.00   0.71
     3   8    -0.33  -0.01  -0.00     0.01  -0.33  -0.00     0.00   0.00  -0.71
                      4
                     SGU
 Frequencies --   2320.8176
 Red. masses --     12.8774
 Frc consts  --     40.8657
 IR Inten    --    892.6269
 Raman Activ --      0.0000
 Depolar (P) --      0.0000
 Depolar (U) --      0.0000
  Atom  AN      X      Y      Z
     1   6    -0.00   0.00   0.88
     2   8     0.00   0.00  -0.33
     3   8     0.00   0.00  -0.33

 -------------------
 - Thermochemistry -
 -------------------
 Temperature   298.150 Kelvin.  Pressure   1.00000 Atm.
 Atom     1 has atomic number  6 and mass  12.00000
 Atom     2 has atomic number  8 and mass  15.99491
 Atom     3 has atomic number  8 and mass  15.99491
 Molecular mass:    43.98983 amu.
 Principal axes and moments of inertia in atomic units:
                           1         2         3
     Eigenvalues --     0.00000 156.43704 156.43704
           X           -0.00000   1.00000  -0.00000
           Y            0.00000   0.00000   1.00000
           Z            1.00000   0.00000  -0.00000
 This molecule is a prolate symmetric top.
 Rotational symmetry number  2.
 Rotational temperature (Kelvin)      0.55367
 Rotational constant (GHZ):          11.536534
 Zero-point vibrational energy      28562.1 (Joules/Mol)
                                    6.82650 (Kcal/Mol)
 Warning -- explicit consideration of   2 degrees of freedom as
           vibrations may cause significant error
 Vibrational temperatures:    774.73   774.73  1981.86  3339.14
          (Kelvin)
 
 Zero-point correction=                           0.010879 (Hartree/Particle)
 Thermal correction to Energy=                    0.013642
 Thermal correction to Enthalpy=                  0.014586
 Thermal correction to Gibbs Free Energy=        -0.009900
 Sum of electronic and zero-point Energies=             -0.124135
 Sum of electronic and thermal Energies=                -0.121372
 Sum of electronic and thermal Enthalpies=              -0.120428
 Sum of electronic and thermal Free Energies=           -0.144913
 
                     E (Thermal)             CV                S
                      KCal/Mol        Cal/Mol-Kelvin    Cal/Mol-Kelvin
 Total                    8.560              7.416             51.534
 Electronic               0.000              0.000              0.000
 Translational            0.889              2.981             37.270
 Rotational               0.592              1.987             13.107
 Vibrational              7.079              2.448              1.157
 Vibration     1          0.893              1.165              0.569
 Vibration     2          0.893              1.165              0.569
                       Q            Log10(Q)             Ln(Q)
 Total Bot       0.357679D+05          4.553493         10.484805
 Total V=0       0.360871D+10          9.557352         22.006616
 Vib (Bot)       0.115839D-04         -4.936146        -11.365896
 Vib (Bot)    1  0.294663D+00         -0.530675         -1.221924
 Vib (Bot)    2  0.294663D+00         -0.530675         -1.221924
 Vib (V=0)       0.116873D+01          0.067713          0.155914
 Vib (V=0)    1  0.108037D+01          0.033571          0.077301
 Vib (V=0)    2  0.108037D+01          0.033571          0.077301
 Electronic      0.100000D+01          0.000000          0.000000
 Translational   0.114679D+08          7.059482         16.255059
 Rotational      0.269251D+03          2.430157          5.595643
 
                                                           CO2 PM6 Opt Freq
                                                             IR Spectrum
 
      2                                                  1                                                                           
      3                                                  3                                             5                             
      2                                                  7                                             3                             
      1                                                  7                                             8                             
 
      X                                                                                                X                             
      X                                                                                                X                             
      X                                                                                                                              
      X                                                                                                                              
      X                                                                                                                              
      X                                                                                                                              
      X                                                                                                                              
      X                                                                                                                              
      X                                                                                                                              
      X                                                                                                                              
      X                                                                                                                              
      X                                                                                                                              
      X                                                                                                                              
      X                                                                                                                              
      X                                                                                                                              
      X                                                                                                                              
      X                                                                                                                              
      X                                                                                                                              
      X                                                                                                                              
      X                                                                                                                              
 
 
                                                           CO2 PM6 Opt Freq
                                                            Raman Spectrum
 
      2                                                  1                                                                           
      3                                                  3                                             5                             
      2                                                  7                                             3                             
      1                                                  7                                             8                             
 
                                                         X                                                                           
                                                         X                                                                           
                                                         X                                                                           
                                                         X                                                                           
                                                         X                                                                           
                                                         X                                                                           
                                                         X                                                                           
                                                         X                                                                           
                                                         X                                                                           
                                                         X                                                                           
                                                         X                                                                           
                                                         X                                                                           
                                                         X                                                                           
                                                         X                                                                           
                                                         X                                                                           
                                                         X                                                                           
                                                         X                                                                           
                                                         X                                                                           
                                                         X                                                                           
                                                         X                                                                           
 
 ***** Axes restored to original set *****
 -------------------------------------------------------------------
 Center     Atomic                   Forces (Hartrees/Bohr)
 Number     Number              X              Y              Z
 -------------------------------------------------------------------
      1        6           0.000000000   -0.000000000   -0.000000000
      2        8           0.000000000    0.000000000    0.000000000
      3        8          -0.000000000    0.000000000    0.000000000
 -------------------------------------------------------------------
 Cartesian Forces:  Max     0.000000000 RMS     0.000000000
 Force constants in Cartesian coordinates: 
                1             2             3             4             5 
      1  0.177875D+01
      2  0.000000D+00  0.957511D-01
      3  0.000000D+00  0.000000D+00  0.957511D-01
      4 -0.889374D+00  0.000000D+00  0.000000D+00  0.101894D+01
      5  0.000000D+00 -0.478755D-01  0.000000D+00  0.000000D+00  0.239378D-01
      6  0.000000D+00  0.000000D+00 -0.478755D-01  0.000000D+00  0.000000D+00
      7 -0.889374D+00  0.000000D+00  0.000000D+00 -0.129566D+00  0.000000D+00
      8  0.000000D+00 -0.478755D-01  0.000000D+00  0.000000D+00  0.239378D-01
      9  0.000000D+00  0.000000D+00 -0.478755D-01  0.000000D+00  0.000000D+00
                6             7             8             9 
      6  0.239378D-01
      7  0.000000D+00  0.101894D+01
      8  0.000000D+00  0.000000D+00  0.239378D-01
      9  0.239378D-01  0.000000D+00  0.000000D+00  0.239378D-01
 FormGI is forming the generalized inverse of G from B-inverse, IUseBI=4.
 Force constants in internal coordinates: 
                1             2             3             4 
      1  0.101894D+01
      2  0.129566D+00  0.101894D+01
      3  0.000000D+00  0.000000D+00  0.117061D+00
      4  0.000000D+00  0.000000D+00  0.000000D+00  0.117061D+00
 Leave Link  716 at Fri Sep  6 10:15:46 2024, MaxMem=   104857600 cpu:               0.0 elap:               0.0
 (Enter /Users/asuyarger/Applications/G16/g16/l103.exe)

 GradGradGradGradGradGradGradGradGradGradGradGradGradGradGradGradGradGrad
 Berny optimization.
 Red2BG is reusing G-inverse.
 Internal  Forces:  Max     0.000000000 RMS     0.000000000
 Search for a local minimum.
 Step number   1 out of a maximum of    2
 All quantities printed in internal units (Hartrees-Bohrs-Radians)
 Second derivative matrix not updated -- analytic derivatives used.
 The second derivative matrix:
                          R1        R2        A1        A2
           R1           1.01894
           R2           0.12957   1.01894
           A1          -0.00000   0.00000   0.11706
           A2           0.00000   0.00000  -0.00000   0.11706
 ITU=  0
     Eigenvalues ---    0.11706   0.11706   0.88937   1.14851
 Angle between quadratic step and forces=  90.00 degrees.
 Linear search not attempted -- first point.
 Iteration  1 RMS(Cart)=  0.00000000 RMS(Int)=  0.00000000
 ITry= 1 IFail=0 DXMaxC= 3.39D-10 DCOld= 1.00D+10 DXMaxT= 3.00D-01 DXLimC= 3.00D+00 Rises=F
 ClnCor:  largest displacement from symmetrization is 3.29D-15 for atom     1.
 Variable       Old X    -DE/DX   Delta X   Delta X   Delta X     New X
                                 (Linear)    (Quad)   (Total)
    R1        2.21138   0.00000   0.00000   0.00000   0.00000   2.21138
    R2        2.21138   0.00000   0.00000   0.00000   0.00000   2.21138
    A1        3.14159  -0.00000   0.00000  -0.00000   0.00000   3.14159
    A2        3.14159   0.00000   0.00000   0.00000   0.00000   3.14159
         Item               Value     Threshold  Converged?
 Maximum Force            0.000000     0.000015     YES
 RMS     Force            0.000000     0.000010     YES
 Maximum Displacement     0.000000     0.000060     YES
 RMS     Displacement     0.000000     0.000040     YES
 Predicted change in Energy=-1.320760D-19
 Optimization completed.
    -- Stationary point found.
                           ----------------------------
                           !   Optimized Parameters   !
                           ! (Angstroms and Degrees)  !
 --------------------------                            --------------------------
 ! Name  Definition              Value          Derivative Info.                !
 --------------------------------------------------------------------------------
 ! R1    R(1,2)                  1.1702         -DE/DX =    0.0                 !
 ! R2    R(1,3)                  1.1702         -DE/DX =    0.0                 !
 ! A1    L(2,1,3,-2,-1)        180.0            -DE/DX =    0.0                 !
 ! A2    L(2,1,3,-3,-2)        180.0            -DE/DX =    0.0                 !
 --------------------------------------------------------------------------------
 GradGradGradGradGradGradGradGradGradGradGradGradGradGradGradGradGradGrad

 Leave Link  103 at Fri Sep  6 10:15:46 2024, MaxMem=   104857600 cpu:               0.0 elap:               0.0
 (Enter /Users/asuyarger/Applications/G16/g16/l9999.exe)
 Dipole is zero, so no output in dipole orientation.

 ----------------------------------------------------------------------

 Electric dipole moment (input orientation):
 (Debye = 10**-18 statcoulomb cm , SI units = C m)
                  (au)            (Debye)         (10**-30 SI)
   Tot        0.000000D+00      0.000000D+00      0.000000D+00
   x          0.000000D+00      0.000000D+00      0.000000D+00
   y          0.000000D+00      0.000000D+00      0.000000D+00
   z          0.000000D+00      0.000000D+00      0.000000D+00

 Dipole polarizability, Alpha (input orientation).
 (esu units = cm**3 , SI units = C**2 m**2 J**-1)
 Alpha(0;0):
               (au)            (10**-24 esu)      (10**-40 SI)
   iso        0.134827D+02      0.199792D+01      0.222299D+01
   aniso      0.343182D+02      0.508543D+01      0.565831D+01
   xx         0.363615D+02      0.538821D+01      0.599519D+01
   yx         0.000000D+00      0.000000D+00      0.000000D+00
   yy         0.204326D+01      0.302780D+00      0.336888D+00
   zx         0.000000D+00      0.000000D+00      0.000000D+00
   zy         0.000000D+00      0.000000D+00      0.000000D+00
   zz         0.204326D+01      0.302780D+00      0.336888D+00

 ----------------------------------------------------------------------
 1\1\GINC-JEFFSMACSTUDIO\Freq\RPM6\ZDO\C1O2\ROOT\06-Sep-2024\0\\#P Geom
 =AllCheck Guess=TCheck SCRF=Check GenChk RPM6/ZDO Freq\\CO2 PM6 Opt Fr
 eq\\0,1\C,2.92043382,0.67811934,0.\O,4.0906469399,0.67811934,0.\O,1.75
 02207001,0.67811934,0.\\Version=EM64M-G16RevA.03\State=1-SGG\HF=-0.135
 0139\RMSD=2.809e-11\RMSF=1.836e-10\ZeroPoint=0.0108787\Thermal=0.01364
 18\Dipole=0.,0.,0.\DipoleDeriv=2.8267007,0.,0.,0.,0.6755749,0.,0.,0.,0
 .6755749,-1.4133503,0.,0.,0.,-0.3377871,0.,0.,0.,-0.3377871,-1.4133503
 ,0.,0.,0.,-0.3377871,0.,0.,0.,-0.3377871\Polar=36.3614569,0.,2.0432584
 ,0.,0.,2.0432584\PolarDeriv=0.,0.,0.,0.,0.,0.,0.,0.,0.,0.,0.,0.,0.,0.,
 0.,0.,0.,0.,17.4848183,0.,0.9029402,0.,0.,0.9029402,0.,7.7594449,0.,0.
 ,0.,0.,0.,0.,0.,7.7594449,0.,0.,-17.4848183,0.,-0.9029402,0.,0.,-0.902
 9402,0.,-7.7594449,0.,0.,0.,0.,0.,0.,0.,-7.7594449,0.,0.\HyperPolar=0.
 ,0.,0.,0.,0.,0.,0.,0.,0.,0.\PG=D*H [O(C1),C*(O1.O1)]\NImag=0\\1.778747
 67,0.,0.09575106,0.,0.,0.09575106,-0.88937381,0.,0.,1.01893958,0.,-0.0
 4787552,0.,0.,0.02393776,0.,0.,-0.04787552,0.,0.,0.02393776,-0.8893738
 1,0.,0.,-0.12956580,0.,0.,1.01893958,0.,-0.04787552,0.,0.,0.02393776,0
 .,0.,0.02393776,0.,0.,-0.04787552,0.,0.,0.02393776,0.,0.,0.02393776\\0
 .,0.,0.,0.,0.,0.,0.,0.,0.\\\@


 DIATOMIC MOLECULES ARE PECULIAR BECAUSE THEY ONLY HAVE TWO ENDS,
 AND THESE ENDS ARE VERY CLOSE TOGETHER.
 KLAUS RUEDENBERG, REV.MOD.PHYS. PG 176, 32, (1960)
 Job cpu time:       0 days  0 hours  0 minutes  0.9 seconds.
 Elapsed time:       0 days  0 hours  0 minutes  0.7 seconds.
 File lengths (MBytes):  RWF=      6 Int=      0 D2E=      0 Chk=      2 Scr=      1
 Normal termination of Gaussian 16 at Fri Sep  6 10:15:46 2024.
