 Entering Gaussian System, Link 0=g16
 Input=/Users/asuyarger/Downloads/CO2_DFT_uWB97XD_apVTZ_Opt_Freq_Full_NBO.gjf
 Output=/Users/asuyarger/Downloads/CO2_DFT_uWB97XD_apVTZ_Opt_Freq_Full_NBO.log
 Initial command:
 /Users/asuyarger/Applications/G16/g16/l1.exe "/Users/asuyarger/Applications/G16/scratch/Gau-88965.inp" -scrdir="/Users/asuyarger/Applications/G16/scratch/"
 Entering Link 1 = /Users/asuyarger/Applications/G16/g16/l1.exe PID=     88966.
  
 Copyright (c) 1988,1990,1992,1993,1995,1998,2003,2009,2016,
            Gaussian, Inc.  All Rights Reserved.
  
 This is part of the Gaussian(R) 16 program.  It is based on
 the Gaussian(R) 09 system (copyright 2009, Gaussian, Inc.),
 the Gaussian(R) 03 system (copyright 2003, Gaussian, Inc.),
 the Gaussian(R) 98 system (copyright 1998, Gaussian, Inc.),
 the Gaussian(R) 94 system (copyright 1995, Gaussian, Inc.),
 the Gaussian 92(TM) system (copyright 1992, Gaussian, Inc.),
 the Gaussian 90(TM) system (copyright 1990, Gaussian, Inc.),
 the Gaussian 88(TM) system (copyright 1988, Gaussian, Inc.),
 the Gaussian 86(TM) system (copyright 1986, Carnegie Mellon
 University), and the Gaussian 82(TM) system (copyright 1983,
 Carnegie Mellon University). Gaussian is a federally registered
 trademark of Gaussian, Inc.
  
 This software contains proprietary and confidential information,
 including trade secrets, belonging to Gaussian, Inc.
  
 This software is provided under written license and may be
 used, copied, transmitted, or stored only in accord with that
 written license.
  
 The following legend is applicable only to US Government
 contracts under FAR:
  
                    RESTRICTED RIGHTS LEGEND
  
 Use, reproduction and disclosure by the US Government is
 subject to restrictions as set forth in subparagraphs (a)
 and (c) of the Commercial Computer Software - Restricted
 Rights clause in FAR 52.227-19.
  
 Gaussian, Inc.
 340 Quinnipiac St., Bldg. 40, Wallingford CT 06492
  
  
 ---------------------------------------------------------------
 Warning -- This program may not be used in any manner that
 competes with the business of Gaussian, Inc. or will provide
 assistance to any competitor of Gaussian, Inc.  The licensee
 of this program is prohibited from giving any competitor of
 Gaussian, Inc. access to this program.  By using this program,
 the user acknowledges that Gaussian, Inc. is engaged in the
 business of creating and licensing software in the field of
 computational chemistry and represents and warrants to the
 licensee that it is not a competitor of Gaussian, Inc. and that
 it will not use this program in any manner prohibited above.
 ---------------------------------------------------------------
  

 Cite this work as:
 Gaussian 16, Revision A.03,
 M. J. Frisch, G. W. Trucks, H. B. Schlegel, G. E. Scuseria, 
 M. A. Robb, J. R. Cheeseman, G. Scalmani, V. Barone, 
 G. A. Petersson, H. Nakatsuji, X. Li, M. Caricato, A. V. Marenich, 
 J. Bloino, B. G. Janesko, R. Gomperts, B. Mennucci, H. P. Hratchian, 
 J. V. Ortiz, A. F. Izmaylov, J. L. Sonnenberg, D. Williams-Young, 
 F. Ding, F. Lipparini, F. Egidi, J. Goings, B. Peng, A. Petrone, 
 T. Henderson, D. Ranasinghe, V. G. Zakrzewski, J. Gao, N. Rega, 
 G. Zheng, W. Liang, M. Hada, M. Ehara, K. Toyota, R. Fukuda, 
 J. Hasegawa, M. Ishida, T. Nakajima, Y. Honda, O. Kitao, H. Nakai, 
 T. Vreven, K. Throssell, J. A. Montgomery, Jr., J. E. Peralta, 
 F. Ogliaro, M. J. Bearpark, J. J. Heyd, E. N. Brothers, K. N. Kudin, 
 V. N. Staroverov, T. A. Keith, R. Kobayashi, J. Normand, 
 K. Raghavachari, A. P. Rendell, J. C. Burant, S. S. Iyengar, 
 J. Tomasi, M. Cossi, J. M. Millam, M. Klene, C. Adamo, R. Cammi, 
 J. W. Ochterski, R. L. Martin, K. Morokuma, O. Farkas, 
 J. B. Foresman, and D. J. Fox, Gaussian, Inc., Wallingford CT, 2016.
 
 ******************************************
 Gaussian 16:  EM64M-G16RevA.03 25-Dec-2016
                 6-Sep-2024 
 ******************************************
 %chk=CO2_DFT_uWB97XD_apVTZ_Opt_Freq_Full_NBO.chk
 ----------------------------------------------------------------------
 #p opt=tight freq=raman uwb97xd/aug-cc-pvtz guess=save pop=(hirshfeld,
 full,nbo) geom=connectivity polar
 ----------------------------------------------------------------------
 1/7=10,18=20,19=15,26=3,38=1,57=2/1,3;
 2/9=110,12=2,17=6,18=5,40=1/2;
 3/5=16,6=1,7=10,11=2,25=1,30=1,71=1,74=-58,116=2/1,2,3;
 4//1;
 5/5=2,38=5,98=1/2;
 6/7=3,28=1,40=1,79=1/1,7;
 7//1,2,3,16;
 1/7=10,18=20,19=15,26=3/3(2);
 2/9=110/2;
 99//99;
 2/9=110/2;
 3/5=16,6=1,7=10,11=2,25=1,30=1,71=1,74=-58,116=2/1,2,3;
 4/5=5,16=3,69=1/1;
 5/5=2,38=5,98=1/2;
 7//1,2,3,16;
 1/7=10,18=20,19=15,26=3/3(-5);
 2/9=110/2;
 6/7=3,19=2,28=1,40=1,79=1/1,7;
 99/9=1/99;
 Leave Link    1 at Fri Sep  6 10:49:12 2024, MaxMem=           0 cpu:               0.0 elap:               0.0
 (Enter /Users/asuyarger/Applications/G16/g16/l101.exe)
 -------------------------------------------------
 CO2 DFT uWB97XD aug-cc-pVTZ Opt Freq - Full - NBO
 -------------------------------------------------
 Symbolic Z-matrix:
 Charge =  0 Multiplicity = 1
 C                     0.13562   0.24412   0. 
 O                     1.39402   0.24412   0. 
 O                    -1.12278   0.24412   0. 
 
 ITRead=  0  0  0
 MicOpt= -1 -1 -1
 NAtoms=      3 NQM=        3 NQMF=       0 NMMI=      0 NMMIF=      0
                NMic=       0 NMicF=      0.
                    Isotopes and Nuclear Properties:
 (Nuclear quadrupole moments (NQMom) in fm**2, nuclear magnetic moments (NMagM)
  in nuclear magnetons)

  Atom         1           2           3
 IAtWgt=          12          16          16
 AtmWgt=  12.0000000  15.9949146  15.9949146
 NucSpn=           0           0           0
 AtZEff=  -0.0000000  -0.0000000  -0.0000000
 NQMom=    0.0000000   0.0000000   0.0000000
 NMagM=    0.0000000   0.0000000   0.0000000
 AtZNuc=   6.0000000   8.0000000   8.0000000
 Leave Link  101 at Fri Sep  6 10:49:12 2024, MaxMem=   104857600 cpu:               0.1 elap:               0.1
 (Enter /Users/asuyarger/Applications/G16/g16/l103.exe)

 GradGradGradGradGradGradGradGradGradGradGradGradGradGradGradGradGradGrad
 Berny optimization.
 Initialization pass.
                           ----------------------------
                           !    Initial Parameters    !
                           ! (Angstroms and Degrees)  !
 --------------------------                            --------------------------
 ! Name  Definition              Value          Derivative Info.                !
 --------------------------------------------------------------------------------
 ! R1    R(1,2)                  1.2584         estimate D2E/DX2                !
 ! R2    R(1,3)                  1.2584         estimate D2E/DX2                !
 ! A1    L(2,1,3,-2,-1)        180.0            estimate D2E/DX2                !
 ! A2    L(2,1,3,-3,-2)        180.0            estimate D2E/DX2                !
 --------------------------------------------------------------------------------
 Trust Radius=3.00D-01 FncErr=1.00D-07 GrdErr=1.00D-06 EigMax=2.50D+02 EigMin=1.00D-04
 Number of steps in this run=     20 maximum allowed number of steps=    100.
 GradGradGradGradGradGradGradGradGradGradGradGradGradGradGradGradGradGrad

 Leave Link  103 at Fri Sep  6 10:49:12 2024, MaxMem=   104857600 cpu:               0.0 elap:               0.0
 (Enter /Users/asuyarger/Applications/G16/g16/l202.exe)
                          Input orientation:                          
 ---------------------------------------------------------------------
 Center     Atomic      Atomic             Coordinates (Angstroms)
 Number     Number       Type             X           Y           Z
 ---------------------------------------------------------------------
      1          6           0        0.135624    0.244123    0.000000
      2          8           0        1.394024    0.244123    0.000000
      3          8           0       -1.122776    0.244123    0.000000
 ---------------------------------------------------------------------
                    Distance matrix (angstroms):
                    1          2          3
     1  C    0.000000
     2  O    1.258400   0.000000
     3  O    1.258400   2.516800   0.000000
 Stoichiometry    CO2
 Framework group  D*H[O(C),C*(O.O)]
 Deg. of freedom     1
 Full point group                 D*H     NOp   8
 Largest Abelian subgroup         D2H     NOp   8
 Largest concise Abelian subgroup C2      NOp   2
                         Standard orientation:                         
 ---------------------------------------------------------------------
 Center     Atomic      Atomic             Coordinates (Angstroms)
 Number     Number       Type             X           Y           Z
 ---------------------------------------------------------------------
      1          6           0        0.000000    0.000000    0.000000
      2          8           0        0.000000    0.000000    1.258400
      3          8           0        0.000000    0.000000   -1.258400
 ---------------------------------------------------------------------
 Rotational constants (GHZ):           0.0000000           9.9762623           9.9762623
 Leave Link  202 at Fri Sep  6 10:49:12 2024, MaxMem=   104857600 cpu:               0.0 elap:               0.0
 (Enter /Users/asuyarger/Applications/G16/g16/l301.exe)
 Standard basis: Aug-CC-pVTZ (5D, 7F)
 Ernie: Thresh=  0.10000D-02 Tol=  0.10000D-05 Strict=F.
 Ernie:  9 primitive shells out of 90 were deleted.
 There are    38 symmetry adapted cartesian basis functions of AG  symmetry.
 There are     8 symmetry adapted cartesian basis functions of B1G symmetry.
 There are    16 symmetry adapted cartesian basis functions of B2G symmetry.
 There are    16 symmetry adapted cartesian basis functions of B3G symmetry.
 There are     7 symmetry adapted cartesian basis functions of AU  symmetry.
 There are    34 symmetry adapted cartesian basis functions of B1U symmetry.
 There are    23 symmetry adapted cartesian basis functions of B2U symmetry.
 There are    23 symmetry adapted cartesian basis functions of B3U symmetry.
 There are    30 symmetry adapted basis functions of AG  symmetry.
 There are     8 symmetry adapted basis functions of B1G symmetry.
 There are    14 symmetry adapted basis functions of B2G symmetry.
 There are    14 symmetry adapted basis functions of B3G symmetry.
 There are     7 symmetry adapted basis functions of AU  symmetry.
 There are    27 symmetry adapted basis functions of B1U symmetry.
 There are    19 symmetry adapted basis functions of B2U symmetry.
 There are    19 symmetry adapted basis functions of B3U symmetry.
   138 basis functions,   216 primitive gaussians,   165 cartesian basis functions
    11 alpha electrons       11 beta electrons
       nuclear repulsion energy        53.8260354401 Hartrees.
 IExCor= 4639 DFT=T Ex+Corr=wB97XD ExCW=0 ScaHFX=  1.000000
 ScaDFX=  1.000000  1.000000  1.000000  1.000000 ScalE2=  1.000000  1.000000
 IRadAn=      5 IRanWt=     -1 IRanGd=            0 ICorTp=0 IEmpDi=121
 HFx  wShort=  0.000000 wLong=  0.200000 cFull=  0.222036 cShort=  0.000000 cLong=  0.777964
 DFx  wShort=  0.000000 wLong=  0.200000 cFull=  0.000000 cShort=  0.000000 cLong=  1.000000
 NAtoms=    3 NActive=    3 NUniq=    2 SFac= 2.25D+00 NAtFMM=   60 NAOKFM=F Big=F
 Integral buffers will be    131072 words long.
 Raffenetti 2 integral format.
 Two-electron integral symmetry is turned on.
 R6Disp:  Grimme-D2 Dispersion energy=       -0.0000774914 Hartrees.
 Nuclear repulsion after empirical dispersion term =       53.8259579487 Hartrees.
 Leave Link  301 at Fri Sep  6 10:49:12 2024, MaxMem=   104857600 cpu:               0.0 elap:               0.0
 (Enter /Users/asuyarger/Applications/G16/g16/l302.exe)
 NPDir=0 NMtPBC=     1 NCelOv=     1 NCel=       1 NClECP=     1 NCelD=      1
         NCelK=      1 NCelE2=     1 NClLst=     1 CellRange=     0.0.
 One-electron integrals computed using PRISM.
 One-electron integral symmetry used in STVInt
 NBasis=   138 RedAO= T EigKep=  4.29D-04  NBF=    30     8    14    14     7    27    19    19
 NBsUse=   138 1.00D-06 EigRej= -1.00D+00 NBFU=    30     8    14    14     7    27    19    19
 Precomputing XC quadrature grid using
 IXCGrd= 4 IRadAn=           5 IRanWt=          -1 IRanGd=           0 AccXCQ= 0.00D+00.
 Generated NRdTot=       0 NPtTot=           0 NUsed=           0 NTot=          32
 NSgBfM=   165   165   165   165   165 MxSgAt=     3 MxSgA2=     3.
 Leave Link  302 at Fri Sep  6 10:49:12 2024, MaxMem=   104857600 cpu:               0.1 elap:               0.1
 (Enter /Users/asuyarger/Applications/G16/g16/l303.exe)
 DipDrv:  MaxL=1.
 Leave Link  303 at Fri Sep  6 10:49:12 2024, MaxMem=   104857600 cpu:               0.0 elap:               0.0
 (Enter /Users/asuyarger/Applications/G16/g16/l401.exe)
 ExpMin= 3.57D-02 ExpMax= 1.53D+04 ExpMxC= 5.22D+02 IAcc=3 IRadAn=         5 AccDes= 0.00D+00
 Harris functional with IExCor= 4639 and IRadAn=       5 diagonalized for initial guess.
 HarFok:  IExCor= 4639 AccDes= 0.00D+00 IRadAn=         5 IDoV= 1 UseB2=F ITyADJ=14
 ICtDFT=  3500011 ScaDFX=  1.000000  1.000000  1.000000  1.000000
 FoFCou: FMM=F IPFlag=           0 FMFlag=      100000 FMFlg1=           0
         NFxFlg=           0 DoJE=T BraDBF=F KetDBF=T FulRan=T
         wScrn=  0.000000 ICntrl=       500 IOpCl=  0 I1Cent=   200000004 NGrid=           0
         NMat0=    1 NMatS0=      1 NMatT0=    0 NMatD0=    1 NMtDS0=    0 NMtDT0=    0
 Petite list used in FoFCou.
 Harris En= -181.991052626363    
 JPrj=0 DoOrth=F DoCkMO=F.
 Initial guess orbital symmetries:
 Alpha Orbitals:
       Occupied  (SGU) (SGG) (SGG) (SGG) (SGU) (SGG) (SGU) (PIU)
                 (PIU) (PIG) (PIG)
       Virtual   (SGG) (SGU) (PIU) (PIU) (PIU) (PIU) (SGG) (PIG)
                 (PIG) (SGG) (SGU) (PIU) (PIU) (DLTG) (DLTG) (SGU)
                 (SGG) (PIU) (PIU) (PIG) (PIG) (SGG) (SGU) (DLTU)
                 (DLTU) (SGG) (PIG) (PIG) (DLTG) (DLTG) (SGU) (PIU)
                 (PIU) (SGG) (SGU) (SGU) (PHIU) (PHIU) (DLTG) (DLTG)
                 (PIU) (PIU) (PIG) (PIG) (DLTU) (DLTU) (SGU) (PIG)
                 (PIG) (SGG) (PIU) (PIU) (SGG) (PHIG) (PHIG) (DLTU)
                 (DLTU) (DLTG) (DLTG) (PHIU) (PHIU) (SGG) (PIU)
                 (PIU) (SGG) (PIG) (PIG) (SGU) (DLTG) (DLTG) (SGU)
                 (PIU) (PIU) (DLTU) (DLTU) (SGU) (PIG) (PIG) (PIU)
                 (PIU) (DLTG) (DLTG) (SGG) (PHIU) (PHIU) (SGU)
                 (PIG) (PIG) (DLTU) (DLTU) (PIU) (PIU) (SGG) (PIG)
                 (PIG) (SGU) (SGG) (PIU) (PIU) (SGU) (PHIG) (PHIG)
                 (PHIU) (PHIU) (DLTG) (DLTG) (DLTU) (DLTU) (PIG)
                 (PIG) (DLTG) (DLTG) (DLTU) (DLTU) (SGU) (PIU)
                 (PIU) (SGG) (SGG) (PIG) (PIG) (SGU) (PIU) (PIU)
                 (SGG) (SGG) (SGU)
 Beta  Orbitals:
       Occupied  (SGU) (SGG) (SGG) (SGG) (SGU) (SGG) (SGU) (PIU)
                 (PIU) (PIG) (PIG)
       Virtual   (SGG) (SGU) (PIU) (PIU) (PIU) (PIU) (SGG) (PIG)
                 (PIG) (SGG) (SGU) (PIU) (PIU) (DLTG) (DLTG) (SGU)
                 (SGG) (PIU) (PIU) (PIG) (PIG) (SGG) (SGU) (DLTU)
                 (DLTU) (SGG) (PIG) (PIG) (DLTG) (DLTG) (SGU) (PIU)
                 (PIU) (SGG) (SGU) (SGU) (PHIU) (PHIU) (DLTG) (DLTG)
                 (PIU) (PIU) (PIG) (PIG) (DLTU) (DLTU) (SGU) (PIG)
                 (PIG) (SGG) (PIU) (PIU) (SGG) (PHIG) (PHIG) (DLTU)
                 (DLTU) (DLTG) (DLTG) (PHIU) (PHIU) (SGG) (PIU)
                 (PIU) (SGG) (PIG) (PIG) (SGU) (DLTG) (DLTG) (SGU)
                 (PIU) (PIU) (DLTU) (DLTU) (SGU) (PIG) (PIG) (PIU)
                 (PIU) (DLTG) (DLTG) (SGG) (PHIU) (PHIU) (SGU)
                 (PIG) (PIG) (DLTU) (DLTU) (PIU) (PIU) (SGG) (PIG)
                 (PIG) (SGU) (SGG) (PIU) (PIU) (SGU) (PHIG) (PHIG)
                 (PHIU) (PHIU) (DLTG) (DLTG) (DLTU) (DLTU) (PIG)
                 (PIG) (DLTG) (DLTG) (DLTU) (DLTU) (SGU) (PIU)
                 (PIU) (SGG) (SGG) (PIG) (PIG) (SGU) (PIU) (PIU)
                 (SGG) (SGG) (SGU)
 The electronic state of the initial guess is 1-SGG.
 Initial guess <Sx>= 0.0000 <Sy>= 0.0000 <Sz>= 0.0000 <S**2>=-0.0000 S=-0.0000
 Leave Link  401 at Fri Sep  6 10:49:12 2024, MaxMem=   104857600 cpu:               0.2 elap:               0.2
 (Enter /Users/asuyarger/Applications/G16/g16/l502.exe)
 Keep R1 and R2 ints in memory in symmetry-blocked form, NReq=103769829.
 FoFCou: FMM=F IPFlag=           0 FMFlag=           0 FMFlg1=           0
         NFxFlg=           0 DoJE=F BraDBF=F KetDBF=F FulRan=T
         wScrn=  0.000000 ICntrl=       600 IOpCl=  0 I1Cent=           0 NGrid=           0
         NMat0=    1 NMatS0=   9591 NMatT0=    0 NMatD0=    1 NMtDS0=    0 NMtDT0=    0
 Petite list used in FoFCou.
 UHF open shell SCF:
 Using DIIS extrapolation, IDIIS=  1040.
 NGot=   104857600 LenX=    93028574 LenY=    93000908
 Requested convergence on RMS density matrix=1.00D-08 within 128 cycles.
 Requested convergence on MAX density matrix=1.00D-06.
 Requested convergence on             energy=1.00D-06.
 No special actions if energy rises.

 Cycle   1  Pass 1  IDiag  1:
 E= -188.471807933864    
 DIIS: error= 6.43D-02 at cycle   1 NSaved=   1.
 NSaved= 1 IEnMin= 1 EnMin= -188.471807933864     IErMin= 1 ErrMin= 6.43D-02
 ErrMax= 6.43D-02  0.00D+00 EMaxC= 1.00D-01 BMatC= 1.38D+00 BMatP= 1.38D+00
 IDIUse=3 WtCom= 3.57D-01 WtEn= 6.43D-01
 Coeff-Com:  0.100D+01
 Coeff-En:   0.100D+01
 Coeff:      0.100D+01
 Gap=     0.580 Goal=   None    Shift=    0.000
 Gap=     0.580 Goal=   None    Shift=    0.000
 GapD=    0.580 DampG=2.000 DampE=0.500 DampFc=1.0000 IDamp=-1.
 RMSDP=2.67D-03 MaxDP=7.46D-02              OVMax= 8.73D-02

 Cycle   2  Pass 1  IDiag  1:
 E= -188.543371057171     Delta-E=       -0.071563123307 Rises=F Damp=F
 DIIS: error= 2.21D-02 at cycle   2 NSaved=   2.
 NSaved= 2 IEnMin= 2 EnMin= -188.543371057171     IErMin= 2 ErrMin= 2.21D-02
 ErrMax= 2.21D-02  0.00D+00 EMaxC= 1.00D-01 BMatC= 1.51D-01 BMatP= 1.38D+00
 IDIUse=3 WtCom= 7.79D-01 WtEn= 2.21D-01
 Coeff-Com:  0.213D+00 0.787D+00
 Coeff-En:   0.000D+00 0.100D+01
 Coeff:      0.166D+00 0.834D+00
 Gap=     0.494 Goal=   None    Shift=    0.000
 Gap=     0.494 Goal=   None    Shift=    0.000
 RMSDP=8.65D-04 MaxDP=3.45D-02 DE=-7.16D-02 OVMax= 3.77D-02

 Cycle   3  Pass 1  IDiag  1:
 E= -188.558163648783     Delta-E=       -0.014792591613 Rises=F Damp=F
 DIIS: error= 1.37D-02 at cycle   3 NSaved=   3.
 NSaved= 3 IEnMin= 3 EnMin= -188.558163648783     IErMin= 3 ErrMin= 1.37D-02
 ErrMax= 1.37D-02  0.00D+00 EMaxC= 1.00D-01 BMatC= 3.63D-02 BMatP= 1.51D-01
 IDIUse=3 WtCom= 8.63D-01 WtEn= 1.37D-01
 Coeff-Com:  0.408D-01 0.353D+00 0.606D+00
 Coeff-En:   0.000D+00 0.846D-01 0.915D+00
 Coeff:      0.352D-01 0.316D+00 0.648D+00
 Gap=     0.499 Goal=   None    Shift=    0.000
 Gap=     0.499 Goal=   None    Shift=    0.000
 RMSDP=3.47D-04 MaxDP=8.43D-03 DE=-1.48D-02 OVMax= 2.82D-02

 Cycle   4  Pass 1  IDiag  1:
 E= -188.562014798508     Delta-E=       -0.003851149725 Rises=F Damp=F
 DIIS: error= 6.85D-03 at cycle   4 NSaved=   4.
 NSaved= 4 IEnMin= 4 EnMin= -188.562014798508     IErMin= 4 ErrMin= 6.85D-03
 ErrMax= 6.85D-03  0.00D+00 EMaxC= 1.00D-01 BMatC= 9.39D-03 BMatP= 3.63D-02
 IDIUse=3 WtCom= 9.32D-01 WtEn= 6.85D-02
 Coeff-Com:  0.180D-02 0.108D+00 0.394D+00 0.497D+00
 Coeff-En:   0.000D+00 0.000D+00 0.227D+00 0.773D+00
 Coeff:      0.168D-02 0.100D+00 0.382D+00 0.516D+00
 Gap=     0.494 Goal=   None    Shift=    0.000
 Gap=     0.494 Goal=   None    Shift=    0.000
 RMSDP=1.34D-04 MaxDP=4.63D-03 DE=-3.85D-03 OVMax= 1.13D-02

 Cycle   5  Pass 1  IDiag  1:
 E= -188.563603406275     Delta-E=       -0.001588607767 Rises=F Damp=F
 DIIS: error= 2.84D-04 at cycle   5 NSaved=   5.
 NSaved= 5 IEnMin= 5 EnMin= -188.563603406275     IErMin= 5 ErrMin= 2.84D-04
 ErrMax= 2.84D-04  0.00D+00 EMaxC= 1.00D-01 BMatC= 1.60D-05 BMatP= 9.39D-03
 IDIUse=3 WtCom= 9.97D-01 WtEn= 2.84D-03
 Coeff-Com: -0.120D-02-0.142D-01-0.174D-01 0.183D-01 0.101D+01
 Coeff-En:   0.000D+00 0.000D+00 0.000D+00 0.000D+00 0.100D+01
 Coeff:     -0.120D-02-0.142D-01-0.174D-01 0.182D-01 0.101D+01
 Gap=     0.493 Goal=   None    Shift=    0.000
 Gap=     0.493 Goal=   None    Shift=    0.000
 RMSDP=1.45D-05 MaxDP=5.36D-04 DE=-1.59D-03 OVMax= 7.93D-04

 Cycle   6  Pass 1  IDiag  1:
 E= -188.563608079205     Delta-E=       -0.000004672930 Rises=F Damp=F
 DIIS: error= 4.46D-05 at cycle   6 NSaved=   6.
 NSaved= 6 IEnMin= 6 EnMin= -188.563608079205     IErMin= 6 ErrMin= 4.46D-05
 ErrMax= 4.46D-05  0.00D+00 EMaxC= 1.00D-01 BMatC= 2.37D-07 BMatP= 1.60D-05
 IDIUse=1 WtCom= 1.00D+00 WtEn= 0.00D+00
 Coeff-Com:  0.869D-05-0.331D-02-0.125D-01-0.190D-01-0.307D-01 0.107D+01
 Coeff:      0.869D-05-0.331D-02-0.125D-01-0.190D-01-0.307D-01 0.107D+01
 Gap=     0.493 Goal=   None    Shift=    0.000
 Gap=     0.493 Goal=   None    Shift=    0.000
 RMSDP=3.20D-06 MaxDP=1.21D-04 DE=-4.67D-06 OVMax= 1.71D-04

 Cycle   7  Pass 1  IDiag  1:
 E= -188.563608190072     Delta-E=       -0.000000110867 Rises=F Damp=F
 DIIS: error= 8.71D-06 at cycle   7 NSaved=   7.
 NSaved= 7 IEnMin= 7 EnMin= -188.563608190072     IErMin= 7 ErrMin= 8.71D-06
 ErrMax= 8.71D-06  0.00D+00 EMaxC= 1.00D-01 BMatC= 7.57D-09 BMatP= 2.37D-07
 IDIUse=1 WtCom= 1.00D+00 WtEn= 0.00D+00
 Coeff-Com:  0.197D-04 0.829D-03 0.228D-02 0.176D-02-0.133D-01-0.142D+00
 Coeff-Com:  0.115D+01
 Coeff:      0.197D-04 0.829D-03 0.228D-02 0.176D-02-0.133D-01-0.142D+00
 Coeff:      0.115D+01
 Gap=     0.493 Goal=   None    Shift=    0.000
 Gap=     0.493 Goal=   None    Shift=    0.000
 RMSDP=3.54D-07 MaxDP=1.42D-05 DE=-1.11D-07 OVMax= 3.29D-05

 Cycle   8  Pass 1  IDiag  1:
 E= -188.563608192963     Delta-E=       -0.000000002891 Rises=F Damp=F
 DIIS: error= 1.33D-06 at cycle   8 NSaved=   8.
 NSaved= 8 IEnMin= 8 EnMin= -188.563608192963     IErMin= 8 ErrMin= 1.33D-06
 ErrMax= 1.33D-06  0.00D+00 EMaxC= 1.00D-01 BMatC= 1.62D-10 BMatP= 7.57D-09
 IDIUse=1 WtCom= 1.00D+00 WtEn= 0.00D+00
 Coeff-Com: -0.148D-05-0.163D-05 0.949D-04 0.197D-03 0.139D-02-0.117D-01
 Coeff-Com: -0.121D+00 0.113D+01
 Coeff:     -0.148D-05-0.163D-05 0.949D-04 0.197D-03 0.139D-02-0.117D-01
 Coeff:     -0.121D+00 0.113D+01
 Gap=     0.493 Goal=   None    Shift=    0.000
 Gap=     0.493 Goal=   None    Shift=    0.000
 RMSDP=5.25D-08 MaxDP=2.03D-06 DE=-2.89D-09 OVMax= 5.39D-06

 Cycle   9  Pass 1  IDiag  1:
 E= -188.563608193031     Delta-E=       -0.000000000068 Rises=F Damp=F
 DIIS: error= 9.91D-08 at cycle   9 NSaved=   9.
 NSaved= 9 IEnMin= 9 EnMin= -188.563608193031     IErMin= 9 ErrMin= 9.91D-08
 ErrMax= 9.91D-08  0.00D+00 EMaxC= 1.00D-01 BMatC= 2.79D-12 BMatP= 1.62D-10
 IDIUse=1 WtCom= 1.00D+00 WtEn= 0.00D+00
 Coeff-Com:  0.256D-06-0.450D-05-0.324D-04-0.293D-04 0.414D-04 0.254D-02
 Coeff-Com: -0.471D-03-0.117D+00 0.112D+01
 Coeff:      0.256D-06-0.450D-05-0.324D-04-0.293D-04 0.414D-04 0.254D-02
 Coeff:     -0.471D-03-0.117D+00 0.112D+01
 Gap=     0.493 Goal=   None    Shift=    0.000
 Gap=     0.493 Goal=   None    Shift=    0.000
 RMSDP=8.74D-09 MaxDP=1.62D-07 DE=-6.82D-11 OVMax= 2.69D-07

 SCF Done:  E(UwB97XD) =  -188.563608193     A.U. after    9 cycles
            NFock=  9  Conv=0.87D-08     -V/T= 2.0093
 <Sx>= 0.0000 <Sy>= 0.0000 <Sz>= 0.0000 <S**2>= 0.0000 S= 0.0000
 <L.S>= 0.000000000000E+00
 KE= 1.868193044547D+02 PE=-5.507979306119D+02 EE= 1.215890600155D+02
 Annihilation of the first spin contaminant:
 S**2 before annihilation     0.0000,   after    -0.0000
 Leave Link  502 at Fri Sep  6 10:49:18 2024, MaxMem=   104857600 cpu:               6.0 elap:               6.0
 (Enter /Users/asuyarger/Applications/G16/g16/l601.exe)
 Copying SCF densities to generalized density rwf, IOpCl= 1 IROHF=0.

 **********************************************************************

            Population analysis using the SCF density.

 **********************************************************************

 Orbital symmetries:
 Alpha Orbitals:
       Occupied  (SGU) (SGG) (SGG) (SGG) (SGU) (SGG) (SGU) (PIU)
                 (PIU) (PIG) (PIG)
       Virtual   (SGG) (PIU) (PIU) (PIU) (PIU) (SGU) (SGG) (SGG)
                 (PIG) (PIG) (SGU) (PIU) (PIU) (DLTG) (DLTG) (SGU)
                 (SGG) (PIU) (PIU) (PIG) (PIG) (SGG) (SGU) (DLTU)
                 (DLTU) (SGG) (SGU) (PIG) (PIG) (DLTG) (DLTG) (PIU)
                 (PIU) (SGG) (SGU) (DLTG) (DLTG) (PHIU) (PHIU)
                 (SGU) (PIU) (PIU) (PIG) (PIG) (DLTU) (DLTU) (SGU)
                 (PIG) (PIG) (SGG) (PIU) (PIU) (SGG) (PHIG) (PHIG)
                 (DLTU) (DLTU) (DLTG) (DLTG) (PHIU) (PHIU) (SGG)
                 (PIU) (PIU) (SGG) (PIG) (PIG) (SGU) (DLTG) (DLTG)
                 (SGU) (PIU) (PIU) (DLTU) (DLTU) (SGU) (PIG) (PIG)
                 (PIU) (PIU) (DLTG) (DLTG) (SGG) (PHIU) (PHIU)
                 (SGU) (PIG) (PIG) (DLTU) (DLTU) (PIU) (PIU) (SGG)
                 (PIG) (PIG) (SGU) (SGG) (PIU) (PIU) (SGU) (PHIG)
                 (PHIG) (PHIU) (PHIU) (DLTG) (DLTG) (DLTU) (DLTU)
                 (PIG) (PIG) (DLTG) (DLTG) (DLTU) (DLTU) (SGU)
                 (PIU) (PIU) (SGG) (SGG) (PIG) (PIG) (SGU) (PIU)
                 (PIU) (SGG) (SGG) (SGU)
 Beta  Orbitals:
       Occupied  (SGU) (SGG) (SGG) (SGG) (SGU) (SGG) (SGU) (PIU)
                 (PIU) (PIG) (PIG)
       Virtual   (SGG) (PIU) (PIU) (PIU) (PIU) (SGU) (SGG) (SGG)
                 (PIG) (PIG) (SGU) (PIU) (PIU) (DLTG) (DLTG) (SGU)
                 (SGG) (PIU) (PIU) (PIG) (PIG) (SGG) (SGU) (DLTU)
                 (DLTU) (SGG) (SGU) (PIG) (PIG) (DLTG) (DLTG) (PIU)
                 (PIU) (SGG) (SGU) (DLTG) (DLTG) (PHIU) (PHIU)
                 (SGU) (PIU) (PIU) (PIG) (PIG) (DLTU) (DLTU) (SGU)
                 (PIG) (PIG) (SGG) (PIU) (PIU) (SGG) (PHIG) (PHIG)
                 (DLTU) (DLTU) (DLTG) (DLTG) (PHIU) (PHIU) (SGG)
                 (PIU) (PIU) (SGG) (PIG) (PIG) (SGU) (DLTG) (DLTG)
                 (SGU) (PIU) (PIU) (DLTU) (DLTU) (SGU) (PIG) (PIG)
                 (PIU) (PIU) (DLTG) (DLTG) (SGG) (PHIU) (PHIU)
                 (SGU) (PIG) (PIG) (DLTU) (DLTU) (PIU) (PIU) (SGG)
                 (PIG) (PIG) (SGU) (SGG) (PIU) (PIU) (SGU) (PHIG)
                 (PHIG) (PHIU) (PHIU) (DLTG) (DLTG) (DLTU) (DLTU)
                 (PIG) (PIG) (DLTG) (DLTG) (DLTU) (DLTU) (SGU)
                 (PIU) (PIU) (SGG) (SGG) (PIG) (PIG) (SGU) (PIU)
                 (PIU) (SGG) (SGG) (SGU)
 The electronic state is 1-SGG.
 Alpha  occ. eigenvalues --  -19.35908 -19.35905 -10.52358  -1.22891  -1.18800
 Alpha  occ. eigenvalues --   -0.67992  -0.61084  -0.58397  -0.58397  -0.45968
 Alpha  occ. eigenvalues --   -0.45968
 Alpha virt. eigenvalues --    0.03354   0.04292   0.04292   0.08175   0.08175
 Alpha virt. eigenvalues --    0.08317   0.13256   0.16643   0.16807   0.16807
 Alpha virt. eigenvalues --    0.22511   0.24144   0.24144   0.27156   0.27156
 Alpha virt. eigenvalues --    0.28703   0.30751   0.42150   0.42150   0.46583
 Alpha virt. eigenvalues --    0.46583   0.47512   0.55658   0.60645   0.60645
 Alpha virt. eigenvalues --    0.63695   0.70398   0.71386   0.71386   0.72375
 Alpha virt. eigenvalues --    0.72375   0.80999   0.80999   0.85649   0.95311
 Alpha virt. eigenvalues --    0.96595   0.96595   0.98302   0.98302   0.98881
 Alpha virt. eigenvalues --    0.99590   0.99590   1.08247   1.08247   1.25983
 Alpha virt. eigenvalues --    1.25983   1.27602   1.34458   1.34458   1.37532
 Alpha virt. eigenvalues --    1.45017   1.45017   1.71878   1.87524   1.87524
 Alpha virt. eigenvalues --    1.98954   1.98954   2.05475   2.05475   2.08283
 Alpha virt. eigenvalues --    2.08283   2.09784   2.10586   2.10586   2.15907
 Alpha virt. eigenvalues --    2.22527   2.22527   2.24274   2.37101   2.37101
 Alpha virt. eigenvalues --    2.50190   2.59057   2.59057   2.61485   2.61486
 Alpha virt. eigenvalues --    2.76109   2.80181   2.80181   2.86823   2.86823
 Alpha virt. eigenvalues --    3.08224   3.08224   3.16567   3.16744   3.16744
 Alpha virt. eigenvalues --    3.40459   3.58108   3.58108   3.58188   3.58188
 Alpha virt. eigenvalues --    3.77796   3.77796   4.14795   4.28492   4.28492
 Alpha virt. eigenvalues --    4.51006   4.91606   5.07493   5.07493   5.96891
 Alpha virt. eigenvalues --    6.07391   6.07391   6.16472   6.16472   6.27405
 Alpha virt. eigenvalues --    6.27405   6.45961   6.45961   6.52513   6.52513
 Alpha virt. eigenvalues --    6.61920   6.61920   6.72450   6.72450   6.74501
 Alpha virt. eigenvalues --    6.80436   6.80436   6.81968   6.90452   7.25289
 Alpha virt. eigenvalues --    7.25289   7.37961   7.41468   7.41468  11.35211
 Alpha virt. eigenvalues --   13.61764  16.48035
  Beta  occ. eigenvalues --  -19.35908 -19.35905 -10.52358  -1.22891  -1.18800
  Beta  occ. eigenvalues --   -0.67992  -0.61084  -0.58397  -0.58397  -0.45968
  Beta  occ. eigenvalues --   -0.45968
  Beta virt. eigenvalues --    0.03354   0.04292   0.04292   0.08175   0.08175
  Beta virt. eigenvalues --    0.08317   0.13256   0.16643   0.16807   0.16807
  Beta virt. eigenvalues --    0.22511   0.24144   0.24144   0.27156   0.27156
  Beta virt. eigenvalues --    0.28703   0.30751   0.42150   0.42150   0.46583
  Beta virt. eigenvalues --    0.46583   0.47512   0.55658   0.60645   0.60645
  Beta virt. eigenvalues --    0.63695   0.70398   0.71386   0.71386   0.72375
  Beta virt. eigenvalues --    0.72375   0.80999   0.80999   0.85649   0.95311
  Beta virt. eigenvalues --    0.96595   0.96595   0.98302   0.98302   0.98881
  Beta virt. eigenvalues --    0.99590   0.99590   1.08247   1.08247   1.25983
  Beta virt. eigenvalues --    1.25983   1.27602   1.34458   1.34458   1.37532
  Beta virt. eigenvalues --    1.45017   1.45017   1.71878   1.87524   1.87524
  Beta virt. eigenvalues --    1.98954   1.98954   2.05475   2.05475   2.08283
  Beta virt. eigenvalues --    2.08283   2.09784   2.10586   2.10586   2.15907
  Beta virt. eigenvalues --    2.22527   2.22527   2.24274   2.37101   2.37101
  Beta virt. eigenvalues --    2.50190   2.59057   2.59057   2.61485   2.61486
  Beta virt. eigenvalues --    2.76109   2.80181   2.80181   2.86823   2.86823
  Beta virt. eigenvalues --    3.08224   3.08224   3.16567   3.16744   3.16744
  Beta virt. eigenvalues --    3.40459   3.58108   3.58108   3.58188   3.58188
  Beta virt. eigenvalues --    3.77796   3.77796   4.14795   4.28492   4.28492
  Beta virt. eigenvalues --    4.51006   4.91606   5.07493   5.07493   5.96891
  Beta virt. eigenvalues --    6.07391   6.07391   6.16472   6.16472   6.27405
  Beta virt. eigenvalues --    6.27405   6.45961   6.45961   6.52513   6.52513
  Beta virt. eigenvalues --    6.61920   6.61920   6.72450   6.72450   6.74501
  Beta virt. eigenvalues --    6.80436   6.80436   6.81968   6.90452   7.25289
  Beta virt. eigenvalues --    7.25289   7.37961   7.41468   7.41468  11.35211
  Beta virt. eigenvalues --   13.61764  16.48035
     Alpha Molecular Orbital Coefficients:
                           1         2         3         4         5
                       (SGU)--O  (SGG)--O  (SGG)--O  (SGG)--O  (SGU)--O
     Eigenvalues --   -19.35908 -19.35905 -10.52358  -1.22891  -1.18800
   1 1   C  1S          0.00000   0.00053   0.97784  -0.13397   0.00000
   2        2S          0.00000   0.00417   0.01083   0.28656   0.00000
   3        3S          0.00000   0.00062   0.05261   0.08031   0.00000
   4        4S          0.00000   0.00160   0.01232   0.06598   0.00000
   5        5S          0.00000   0.00091   0.00206  -0.00196   0.00000
   6        6PX         0.00000   0.00000   0.00000   0.00000   0.00000
   7        6PY         0.00000   0.00000   0.00000   0.00000   0.00000
   8        6PZ         0.00073   0.00000   0.00000   0.00000   0.16399
   9        7PX         0.00000   0.00000   0.00000   0.00000   0.00000
  10        7PY         0.00000   0.00000   0.00000   0.00000   0.00000
  11        7PZ         0.00204   0.00000   0.00000   0.00000   0.10535
  12        8PX         0.00000   0.00000   0.00000   0.00000   0.00000
  13        8PY         0.00000   0.00000   0.00000   0.00000   0.00000
  14        8PZ        -0.00401   0.00000   0.00000   0.00000  -0.02181
  15        9PX         0.00000   0.00000   0.00000   0.00000   0.00000
  16        9PY         0.00000   0.00000   0.00000   0.00000   0.00000
  17        9PZ         0.00053   0.00000   0.00000   0.00000  -0.00473
  18       10D 0        0.00000   0.00092   0.00415   0.02281   0.00000
  19       10D+1        0.00000   0.00000   0.00000   0.00000   0.00000
  20       10D-1        0.00000   0.00000   0.00000   0.00000   0.00000
  21       10D+2        0.00000  -0.00000   0.00000  -0.00000   0.00000
  22       10D-2        0.00000   0.00000   0.00000   0.00000   0.00000
  23       11D 0        0.00000   0.00019  -0.00350   0.02248   0.00000
  24       11D+1        0.00000   0.00000   0.00000   0.00000   0.00000
  25       11D-1        0.00000   0.00000   0.00000   0.00000   0.00000
  26       11D+2        0.00000   0.00000  -0.00000  -0.00000   0.00000
  27       11D-2        0.00000   0.00000   0.00000   0.00000   0.00000
  28       12D 0        0.00000  -0.00054  -0.00429  -0.01516   0.00000
  29       12D+1        0.00000   0.00000   0.00000   0.00000   0.00000
  30       12D-1        0.00000   0.00000   0.00000   0.00000   0.00000
  31       12D+2        0.00000  -0.00000  -0.00000  -0.00000   0.00000
  32       12D-2        0.00000   0.00000   0.00000   0.00000   0.00000
  33       13F 0       -0.00079   0.00000   0.00000   0.00000   0.00309
  34       13F+1        0.00000   0.00000   0.00000   0.00000   0.00000
  35       13F-1        0.00000   0.00000   0.00000   0.00000   0.00000
  36       13F+2       -0.00000   0.00000   0.00000   0.00000   0.00000
  37       13F-2        0.00000   0.00000   0.00000   0.00000   0.00000
  38       13F+3        0.00000   0.00000   0.00000   0.00000   0.00000
  39       13F-3        0.00000   0.00000   0.00000   0.00000   0.00000
  40       14F 0       -0.00112   0.00000   0.00000   0.00000   0.00335
  41       14F+1        0.00000   0.00000   0.00000   0.00000   0.00000
  42       14F-1        0.00000   0.00000   0.00000   0.00000   0.00000
  43       14F+2       -0.00000   0.00000   0.00000   0.00000  -0.00000
  44       14F-2        0.00000   0.00000   0.00000   0.00000   0.00000
  45       14F+3        0.00000   0.00000   0.00000   0.00000   0.00000
  46       14F-3        0.00000   0.00000   0.00000   0.00000   0.00000
  47 2   O  1S          0.68870   0.68843   0.00024  -0.13077  -0.14380
  48        2S         -0.00606  -0.00749   0.00278   0.30415   0.33145
  49        3S          0.03522   0.03548   0.00082   0.08954   0.09688
  50        4S          0.00194   0.00078  -0.00562   0.15866   0.22674
  51        5S         -0.00069  -0.00157  -0.00664  -0.00555   0.03133
  52        6PX         0.00000   0.00000   0.00000   0.00000   0.00000
  53        6PY         0.00000   0.00000   0.00000   0.00000   0.00000
  54        6PZ        -0.00122  -0.00132  -0.00062  -0.06217  -0.06035
  55        7PX         0.00000   0.00000   0.00000   0.00000   0.00000
  56        7PY         0.00000   0.00000   0.00000   0.00000   0.00000
  57        7PZ         0.00005   0.00109   0.00052  -0.07557  -0.08101
  58        8PX         0.00000   0.00000   0.00000   0.00000   0.00000
  59        8PY         0.00000   0.00000   0.00000   0.00000   0.00000
  60        8PZ         0.00266   0.00163   0.01134  -0.00290  -0.04729
  61        9PX         0.00000   0.00000   0.00000   0.00000   0.00000
  62        9PY         0.00000   0.00000   0.00000   0.00000   0.00000
  63        9PZ        -0.00009   0.00041   0.00284   0.00871  -0.00302
  64       10D 0        0.00030   0.00024   0.00043   0.00492   0.00464
  65       10D+1        0.00000   0.00000   0.00000   0.00000   0.00000
  66       10D-1        0.00000   0.00000   0.00000   0.00000   0.00000
  67       10D+2        0.00000  -0.00000   0.00000   0.00000   0.00000
  68       10D-2        0.00000   0.00000   0.00000   0.00000   0.00000
  69       11D 0       -0.00044  -0.00090  -0.00350   0.01206   0.02091
  70       11D+1        0.00000   0.00000   0.00000   0.00000   0.00000
  71       11D-1        0.00000   0.00000   0.00000   0.00000   0.00000
  72       11D+2        0.00000   0.00000  -0.00000  -0.00000  -0.00000
  73       11D-2        0.00000   0.00000   0.00000   0.00000   0.00000
  74       12D 0       -0.00149  -0.00063  -0.00498  -0.00767   0.00647
  75       12D+1        0.00000   0.00000   0.00000   0.00000   0.00000
  76       12D-1        0.00000   0.00000   0.00000   0.00000   0.00000
  77       12D+2        0.00000   0.00000   0.00000   0.00000   0.00000
  78       12D-2        0.00000   0.00000   0.00000   0.00000   0.00000
  79       13F 0       -0.00012   0.00007   0.00030  -0.00233  -0.00320
  80       13F+1        0.00000   0.00000   0.00000   0.00000   0.00000
  81       13F-1        0.00000   0.00000   0.00000   0.00000   0.00000
  82       13F+2        0.00000   0.00000   0.00000  -0.00000   0.00000
  83       13F-2        0.00000   0.00000   0.00000   0.00000   0.00000
  84       13F+3        0.00000   0.00000   0.00000   0.00000   0.00000
  85       13F-3        0.00000   0.00000   0.00000   0.00000   0.00000
  86       14F 0        0.00042   0.00051   0.00279  -0.00070  -0.00515
  87       14F+1        0.00000   0.00000   0.00000   0.00000   0.00000
  88       14F-1        0.00000   0.00000   0.00000   0.00000   0.00000
  89       14F+2       -0.00000  -0.00000  -0.00000  -0.00000  -0.00000
  90       14F-2        0.00000   0.00000   0.00000   0.00000   0.00000
  91       14F+3        0.00000   0.00000   0.00000   0.00000   0.00000
  92       14F-3        0.00000   0.00000   0.00000   0.00000   0.00000
  93 3   O  1S         -0.68870   0.68843   0.00024  -0.13077   0.14380
  94        2S          0.00606  -0.00749   0.00278   0.30415  -0.33145
  95        3S         -0.03522   0.03548   0.00082   0.08954  -0.09688
  96        4S         -0.00194   0.00078  -0.00562   0.15866  -0.22674
  97        5S          0.00069  -0.00157  -0.00664  -0.00555  -0.03133
  98        6PX         0.00000   0.00000   0.00000   0.00000   0.00000
  99        6PY         0.00000   0.00000   0.00000   0.00000   0.00000
 100        6PZ        -0.00122   0.00132   0.00062   0.06217  -0.06035
 101        7PX         0.00000   0.00000   0.00000   0.00000   0.00000
 102        7PY         0.00000   0.00000   0.00000   0.00000   0.00000
 103        7PZ         0.00005  -0.00109  -0.00052   0.07557  -0.08101
 104        8PX         0.00000   0.00000   0.00000   0.00000   0.00000
 105        8PY         0.00000   0.00000   0.00000   0.00000   0.00000
 106        8PZ         0.00266  -0.00163  -0.01134   0.00290  -0.04729
 107        9PX         0.00000   0.00000   0.00000   0.00000   0.00000
 108        9PY         0.00000   0.00000   0.00000   0.00000   0.00000
 109        9PZ        -0.00009  -0.00041  -0.00284  -0.00871  -0.00302
 110       10D 0       -0.00030   0.00024   0.00043   0.00492  -0.00464
 111       10D+1        0.00000   0.00000   0.00000   0.00000   0.00000
 112       10D-1        0.00000   0.00000   0.00000   0.00000   0.00000
 113       10D+2       -0.00000  -0.00000   0.00000   0.00000  -0.00000
 114       10D-2        0.00000   0.00000   0.00000   0.00000   0.00000
 115       11D 0        0.00044  -0.00090  -0.00350   0.01206  -0.02091
 116       11D+1        0.00000   0.00000   0.00000   0.00000   0.00000
 117       11D-1        0.00000   0.00000   0.00000   0.00000   0.00000
 118       11D+2       -0.00000   0.00000  -0.00000  -0.00000   0.00000
 119       11D-2        0.00000   0.00000   0.00000   0.00000   0.00000
 120       12D 0        0.00149  -0.00063  -0.00498  -0.00767  -0.00647
 121       12D+1        0.00000   0.00000   0.00000   0.00000   0.00000
 122       12D-1        0.00000   0.00000   0.00000   0.00000   0.00000
 123       12D+2       -0.00000   0.00000   0.00000   0.00000  -0.00000
 124       12D-2        0.00000   0.00000   0.00000   0.00000   0.00000
 125       13F 0       -0.00012  -0.00007  -0.00030   0.00233  -0.00320
 126       13F+1        0.00000   0.00000   0.00000   0.00000   0.00000
 127       13F-1        0.00000   0.00000   0.00000   0.00000   0.00000
 128       13F+2        0.00000  -0.00000  -0.00000   0.00000   0.00000
 129       13F-2        0.00000   0.00000   0.00000   0.00000   0.00000
 130       13F+3        0.00000   0.00000   0.00000   0.00000   0.00000
 131       13F-3        0.00000   0.00000   0.00000   0.00000   0.00000
 132       14F 0        0.00042  -0.00051  -0.00279   0.00070  -0.00515
 133       14F+1        0.00000   0.00000   0.00000   0.00000   0.00000
 134       14F-1        0.00000   0.00000   0.00000   0.00000   0.00000
 135       14F+2       -0.00000   0.00000   0.00000   0.00000  -0.00000
 136       14F-2        0.00000   0.00000   0.00000   0.00000   0.00000
 137       14F+3        0.00000   0.00000   0.00000   0.00000   0.00000
 138       14F-3        0.00000   0.00000   0.00000   0.00000   0.00000
                           6         7         8         9        10
                       (SGG)--O  (SGU)--O  (PIU)--O  (PIU)--O  (PIG)--O
     Eigenvalues --    -0.67992  -0.61084  -0.58397  -0.58397  -0.45968
   1 1   C  1S         -0.13917   0.00000   0.00000   0.00000   0.00000
   2        2S          0.34161   0.00000   0.00000   0.00000   0.00000
   3        3S          0.10007   0.00000   0.00000   0.00000   0.00000
   4        4S          0.17950   0.00000   0.00000   0.00000   0.00000
   5        5S          0.01989   0.00000   0.00000   0.00000   0.00000
   6        6PX         0.00000   0.00000   0.21370   0.00000   0.00000
   7        6PY         0.00000   0.00000   0.00000   0.21370   0.00000
   8        6PZ         0.00000  -0.20321   0.00000   0.00000   0.00000
   9        7PX         0.00000   0.00000   0.27204   0.00000   0.00000
  10        7PY         0.00000   0.00000   0.00000   0.27204   0.00000
  11        7PZ         0.00000  -0.23862   0.00000   0.00000   0.00000
  12        8PX         0.00000   0.00000   0.08776   0.00000   0.00000
  13        8PY         0.00000   0.00000   0.00000   0.08776   0.00000
  14        8PZ         0.00000  -0.01431   0.00000   0.00000   0.00000
  15        9PX         0.00000   0.00000   0.00642   0.00000   0.00000
  16        9PY         0.00000   0.00000   0.00000   0.00642   0.00000
  17        9PZ         0.00000   0.00445   0.00000   0.00000   0.00000
  18       10D 0        0.00572   0.00000   0.00000   0.00000   0.00000
  19       10D+1        0.00000   0.00000   0.00000   0.00000   0.03047
  20       10D-1        0.00000   0.00000   0.00000   0.00000   0.00000
  21       10D+2       -0.00000   0.00000   0.00000   0.00000   0.00000
  22       10D-2        0.00000   0.00000   0.00000   0.00000   0.00000
  23       11D 0        0.00933   0.00000   0.00000   0.00000   0.00000
  24       11D+1        0.00000   0.00000   0.00000   0.00000   0.04678
  25       11D-1        0.00000   0.00000   0.00000   0.00000   0.00000
  26       11D+2        0.00000   0.00000   0.00000   0.00000   0.00000
  27       11D-2        0.00000   0.00000   0.00000   0.00000   0.00000
  28       12D 0        0.01632   0.00000   0.00000   0.00000   0.00000
  29       12D+1        0.00000   0.00000   0.00000   0.00000  -0.01028
  30       12D-1        0.00000   0.00000   0.00000   0.00000   0.00000
  31       12D+2       -0.00000   0.00000   0.00000   0.00000   0.00000
  32       12D-2        0.00000   0.00000   0.00000   0.00000   0.00000
  33       13F 0        0.00000  -0.01006   0.00000   0.00000   0.00000
  34       13F+1        0.00000   0.00000   0.01530   0.00000   0.00000
  35       13F-1        0.00000   0.00000   0.00000   0.01530   0.00000
  36       13F+2        0.00000  -0.00000   0.00000   0.00000   0.00000
  37       13F-2        0.00000   0.00000   0.00000   0.00000   0.00000
  38       13F+3        0.00000   0.00000  -0.00000   0.00000   0.00000
  39       13F-3        0.00000   0.00000   0.00000   0.00000   0.00000
  40       14F 0        0.00000   0.00792   0.00000   0.00000   0.00000
  41       14F+1        0.00000   0.00000   0.00921   0.00000   0.00000
  42       14F-1        0.00000   0.00000   0.00000   0.00921   0.00000
  43       14F+2        0.00000   0.00000   0.00000   0.00000   0.00000
  44       14F-2        0.00000   0.00000   0.00000   0.00000   0.00000
  45       14F+3        0.00000   0.00000   0.00000   0.00000   0.00000
  46       14F-3        0.00000   0.00000   0.00000  -0.00000   0.00000
  47 2   O  1S          0.08894  -0.06291   0.00000   0.00000   0.00000
  48        2S         -0.22284   0.15910   0.00000   0.00000   0.00000
  49        3S         -0.07022   0.05033   0.00000   0.00000   0.00000
  50        4S         -0.26023   0.20564   0.00000   0.00000   0.00000
  51        5S         -0.04248   0.02955   0.00000   0.00000   0.00000
  52        6PX         0.00000   0.00000   0.20250   0.00000   0.26632
  53        6PY         0.00000   0.00000   0.00000   0.20250   0.00000
  54        6PZ        -0.17631   0.22423   0.00000   0.00000   0.00000
  55        7PX         0.00000   0.00000   0.23989   0.00000   0.32217
  56        7PY         0.00000   0.00000   0.00000   0.23989   0.00000
  57        7PZ        -0.20170   0.25619   0.00000   0.00000   0.00000
  58        8PX         0.00000   0.00000   0.15185   0.00000   0.24309
  59        8PY         0.00000   0.00000   0.00000   0.15185   0.00000
  60        8PZ        -0.10188   0.12411   0.00000   0.00000   0.00000
  61        9PX         0.00000   0.00000   0.00453   0.00000   0.03658
  62        9PY         0.00000   0.00000   0.00000   0.00453   0.00000
  63        9PZ        -0.00598   0.00386   0.00000   0.00000   0.00000
  64       10D 0        0.00667  -0.00841   0.00000   0.00000   0.00000
  65       10D+1        0.00000   0.00000  -0.00724   0.00000  -0.00502
  66       10D-1        0.00000   0.00000   0.00000  -0.00724   0.00000
  67       10D+2        0.00000   0.00000   0.00000   0.00000   0.00000
  68       10D-2        0.00000   0.00000   0.00000   0.00000   0.00000
  69       11D 0        0.01244  -0.01528   0.00000   0.00000   0.00000
  70       11D+1        0.00000   0.00000  -0.01468   0.00000  -0.01700
  71       11D-1        0.00000   0.00000   0.00000  -0.01468   0.00000
  72       11D+2        0.00000  -0.00000   0.00000   0.00000   0.00000
  73       11D-2        0.00000   0.00000   0.00000   0.00000   0.00000
  74       12D 0        0.00583   0.00087   0.00000   0.00000   0.00000
  75       12D+1        0.00000   0.00000  -0.00944   0.00000  -0.01238
  76       12D-1        0.00000   0.00000   0.00000  -0.00944   0.00000
  77       12D+2       -0.00000  -0.00000   0.00000   0.00000   0.00000
  78       12D-2        0.00000   0.00000   0.00000   0.00000   0.00000
  79       13F 0       -0.00260   0.00335   0.00000   0.00000   0.00000
  80       13F+1        0.00000   0.00000   0.00349   0.00000   0.00318
  81       13F-1        0.00000   0.00000   0.00000   0.00349   0.00000
  82       13F+2       -0.00000  -0.00000   0.00000   0.00000   0.00000
  83       13F-2        0.00000   0.00000   0.00000   0.00000   0.00000
  84       13F+3        0.00000   0.00000  -0.00000   0.00000  -0.00000
  85       13F-3        0.00000   0.00000   0.00000   0.00000   0.00000
  86       14F 0       -0.00196   0.00307   0.00000   0.00000   0.00000
  87       14F+1        0.00000   0.00000   0.00078   0.00000   0.00406
  88       14F-1        0.00000   0.00000   0.00000   0.00078   0.00000
  89       14F+2       -0.00000   0.00000   0.00000   0.00000   0.00000
  90       14F-2        0.00000   0.00000   0.00000   0.00000   0.00000
  91       14F+3        0.00000   0.00000  -0.00000   0.00000   0.00000
  92       14F-3        0.00000   0.00000   0.00000   0.00000   0.00000
  93 3   O  1S          0.08894   0.06291   0.00000   0.00000   0.00000
  94        2S         -0.22284  -0.15910   0.00000   0.00000   0.00000
  95        3S         -0.07022  -0.05033   0.00000   0.00000   0.00000
  96        4S         -0.26023  -0.20564   0.00000   0.00000   0.00000
  97        5S         -0.04248  -0.02955   0.00000   0.00000   0.00000
  98        6PX         0.00000   0.00000   0.20250   0.00000  -0.26632
  99        6PY         0.00000   0.00000   0.00000   0.20250   0.00000
 100        6PZ         0.17631   0.22423   0.00000   0.00000   0.00000
 101        7PX         0.00000   0.00000   0.23989   0.00000  -0.32217
 102        7PY         0.00000   0.00000   0.00000   0.23989   0.00000
 103        7PZ         0.20170   0.25619   0.00000   0.00000   0.00000
 104        8PX         0.00000   0.00000   0.15185   0.00000  -0.24309
 105        8PY         0.00000   0.00000   0.00000   0.15185   0.00000
 106        8PZ         0.10188   0.12411   0.00000   0.00000   0.00000
 107        9PX         0.00000   0.00000   0.00453   0.00000  -0.03658
 108        9PY         0.00000   0.00000   0.00000   0.00453   0.00000
 109        9PZ         0.00598   0.00386   0.00000   0.00000   0.00000
 110       10D 0        0.00667   0.00841   0.00000   0.00000   0.00000
 111       10D+1        0.00000   0.00000   0.00724   0.00000  -0.00502
 112       10D-1        0.00000   0.00000   0.00000   0.00724   0.00000
 113       10D+2        0.00000  -0.00000   0.00000   0.00000   0.00000
 114       10D-2        0.00000   0.00000   0.00000   0.00000   0.00000
 115       11D 0        0.01244   0.01528   0.00000   0.00000   0.00000
 116       11D+1        0.00000   0.00000   0.01468   0.00000  -0.01700
 117       11D-1        0.00000   0.00000   0.00000   0.01468   0.00000
 118       11D+2        0.00000   0.00000   0.00000   0.00000   0.00000
 119       11D-2        0.00000   0.00000   0.00000   0.00000   0.00000
 120       12D 0        0.00583  -0.00087   0.00000   0.00000   0.00000
 121       12D+1        0.00000   0.00000   0.00944   0.00000  -0.01238
 122       12D-1        0.00000   0.00000   0.00000   0.00944   0.00000
 123       12D+2       -0.00000   0.00000   0.00000   0.00000   0.00000
 124       12D-2        0.00000   0.00000   0.00000   0.00000   0.00000
 125       13F 0        0.00260   0.00335   0.00000   0.00000   0.00000
 126       13F+1        0.00000   0.00000   0.00349   0.00000  -0.00318
 127       13F-1        0.00000   0.00000   0.00000   0.00349   0.00000
 128       13F+2        0.00000  -0.00000   0.00000   0.00000   0.00000
 129       13F-2        0.00000   0.00000   0.00000   0.00000   0.00000
 130       13F+3        0.00000   0.00000  -0.00000   0.00000   0.00000
 131       13F-3        0.00000   0.00000   0.00000   0.00000   0.00000
 132       14F 0        0.00196   0.00307   0.00000   0.00000   0.00000
 133       14F+1        0.00000   0.00000   0.00078   0.00000  -0.00406
 134       14F-1        0.00000   0.00000   0.00000   0.00078   0.00000
 135       14F+2        0.00000   0.00000   0.00000   0.00000   0.00000
 136       14F-2        0.00000   0.00000   0.00000   0.00000   0.00000
 137       14F+3        0.00000   0.00000  -0.00000   0.00000  -0.00000
 138       14F-3        0.00000   0.00000   0.00000   0.00000   0.00000
                          11        12        13        14        15
                       (PIG)--O  (SGG)--V  (PIU)--V  (PIU)--V  (PIU)--V
     Eigenvalues --    -0.45968   0.03354   0.04292   0.04292   0.08175
   1 1   C  1S          0.00000  -0.03861   0.00000   0.00000   0.00000
   2        2S          0.00000   0.10963   0.00000   0.00000   0.00000
   3        3S          0.00000   0.00938   0.00000   0.00000   0.00000
   4        4S          0.00000   2.08577   0.00000   0.00000   0.00000
   5        5S          0.00000   3.37817   0.00000   0.00000   0.00000
   6        6PX         0.00000   0.00000   0.31860   0.00000   0.00000
   7        6PY         0.00000   0.00000   0.00000   0.31860  -0.09415
   8        6PZ         0.00000   0.00000   0.00000   0.00000   0.00000
   9        7PX         0.00000   0.00000   0.44067   0.00000   0.00000
  10        7PY         0.00000   0.00000   0.00000   0.44067  -0.17624
  11        7PZ         0.00000   0.00000   0.00000   0.00000   0.00000
  12        8PX         0.00000   0.00000   0.52287   0.00000   0.00000
  13        8PY         0.00000   0.00000   0.00000   0.52287  -0.38588
  14        8PZ         0.00000   0.00000   0.00000   0.00000   0.00000
  15        9PX         0.00000   0.00000   0.43612   0.00000   0.00000
  16        9PY         0.00000   0.00000   0.00000   0.43612   1.88985
  17        9PZ         0.00000   0.00000   0.00000   0.00000   0.00000
  18       10D 0        0.00000  -0.03433   0.00000   0.00000   0.00000
  19       10D+1        0.00000   0.00000   0.00000   0.00000   0.00000
  20       10D-1        0.03047   0.00000   0.00000   0.00000   0.00000
  21       10D+2        0.00000  -0.00000   0.00000   0.00000   0.00000
  22       10D-2        0.00000   0.00000   0.00000   0.00000   0.00000
  23       11D 0        0.00000   0.06811   0.00000   0.00000   0.00000
  24       11D+1        0.00000   0.00000   0.00000   0.00000   0.00000
  25       11D-1        0.04678   0.00000   0.00000   0.00000   0.00000
  26       11D+2        0.00000   0.00000   0.00000   0.00000   0.00000
  27       11D-2        0.00000   0.00000   0.00000   0.00000   0.00000
  28       12D 0        0.00000   0.30335   0.00000   0.00000   0.00000
  29       12D+1        0.00000   0.00000   0.00000   0.00000   0.00000
  30       12D-1       -0.01028   0.00000   0.00000   0.00000   0.00000
  31       12D+2        0.00000   0.00000   0.00000   0.00000   0.00000
  32       12D-2        0.00000   0.00000   0.00000   0.00000   0.00000
  33       13F 0        0.00000   0.00000   0.00000   0.00000   0.00000
  34       13F+1        0.00000   0.00000  -0.00588   0.00000   0.00000
  35       13F-1        0.00000   0.00000   0.00000  -0.00588  -0.00292
  36       13F+2        0.00000   0.00000   0.00000   0.00000   0.00000
  37       13F-2        0.00000   0.00000   0.00000   0.00000   0.00000
  38       13F+3        0.00000   0.00000  -0.00000   0.00000   0.00000
  39       13F-3        0.00000   0.00000   0.00000   0.00000  -0.00000
  40       14F 0        0.00000   0.00000   0.00000   0.00000   0.00000
  41       14F+1        0.00000   0.00000  -0.00738   0.00000   0.00000
  42       14F-1        0.00000   0.00000   0.00000  -0.00738  -0.09707
  43       14F+2        0.00000   0.00000   0.00000   0.00000   0.00000
  44       14F-2        0.00000   0.00000   0.00000   0.00000   0.00000
  45       14F+3        0.00000   0.00000   0.00000   0.00000   0.00000
  46       14F-3        0.00000   0.00000   0.00000  -0.00000  -0.00000
  47 2   O  1S          0.00000   0.04502   0.00000   0.00000   0.00000
  48        2S          0.00000  -0.11907   0.00000   0.00000   0.00000
  49        3S          0.00000  -0.03951   0.00000   0.00000   0.00000
  50        4S          0.00000  -0.54351   0.00000   0.00000   0.00000
  51        5S          0.00000  -1.97815   0.00000   0.00000   0.00000
  52        6PX         0.00000   0.00000  -0.20078   0.00000   0.00000
  53        6PY         0.26632   0.00000   0.00000  -0.20078   0.00517
  54        6PZ         0.00000   0.08809   0.00000   0.00000   0.00000
  55        7PX         0.00000   0.00000  -0.24468   0.00000   0.00000
  56        7PY         0.32217   0.00000   0.00000  -0.24468   0.00425
  57        7PZ         0.00000   0.12514   0.00000   0.00000   0.00000
  58        8PX         0.00000   0.00000  -0.27175   0.00000   0.00000
  59        8PY         0.24309   0.00000   0.00000  -0.27175   0.22565
  60        8PZ         0.00000   0.34975   0.00000   0.00000   0.00000
  61        9PX         0.00000   0.00000  -0.28270   0.00000   0.00000
  62        9PY         0.03658   0.00000   0.00000  -0.28270  -0.54399
  63        9PZ         0.00000   0.42758   0.00000   0.00000   0.00000
  64       10D 0        0.00000  -0.00106   0.00000   0.00000   0.00000
  65       10D+1        0.00000   0.00000  -0.00519   0.00000   0.00000
  66       10D-1       -0.00502   0.00000   0.00000  -0.00519   0.00420
  67       10D+2        0.00000   0.00000   0.00000   0.00000   0.00000
  68       10D-2        0.00000   0.00000   0.00000   0.00000   0.00000
  69       11D 0        0.00000  -0.01222   0.00000   0.00000   0.00000
  70       11D+1        0.00000   0.00000  -0.01742   0.00000   0.00000
  71       11D-1       -0.01700   0.00000   0.00000  -0.01742  -0.01053
  72       11D+2        0.00000  -0.00000   0.00000   0.00000   0.00000
  73       11D-2        0.00000   0.00000   0.00000   0.00000   0.00000
  74       12D 0        0.00000  -0.04416   0.00000   0.00000   0.00000
  75       12D+1        0.00000   0.00000  -0.00352   0.00000   0.00000
  76       12D-1       -0.01238   0.00000   0.00000  -0.00352  -0.03670
  77       12D+2        0.00000  -0.00000   0.00000   0.00000   0.00000
  78       12D-2        0.00000   0.00000   0.00000   0.00000   0.00000
  79       13F 0        0.00000   0.00097   0.00000   0.00000   0.00000
  80       13F+1        0.00000   0.00000   0.00258   0.00000   0.00000
  81       13F-1        0.00318   0.00000   0.00000   0.00258  -0.00093
  82       13F+2        0.00000  -0.00000   0.00000   0.00000   0.00000
  83       13F-2        0.00000   0.00000   0.00000   0.00000   0.00000
  84       13F+3        0.00000   0.00000   0.00000   0.00000   0.00000
  85       13F-3        0.00000   0.00000   0.00000  -0.00000  -0.00000
  86       14F 0        0.00000   0.00008   0.00000   0.00000   0.00000
  87       14F+1        0.00000   0.00000   0.00006   0.00000   0.00000
  88       14F-1        0.00406   0.00000   0.00000   0.00006   0.00365
  89       14F+2        0.00000   0.00000   0.00000   0.00000   0.00000
  90       14F-2        0.00000   0.00000   0.00000   0.00000   0.00000
  91       14F+3        0.00000   0.00000  -0.00000   0.00000   0.00000
  92       14F-3       -0.00000   0.00000   0.00000   0.00000   0.00000
  93 3   O  1S          0.00000   0.04502   0.00000   0.00000   0.00000
  94        2S          0.00000  -0.11907   0.00000   0.00000   0.00000
  95        3S          0.00000  -0.03951   0.00000   0.00000   0.00000
  96        4S          0.00000  -0.54351   0.00000   0.00000   0.00000
  97        5S          0.00000  -1.97815   0.00000   0.00000   0.00000
  98        6PX         0.00000   0.00000  -0.20078   0.00000   0.00000
  99        6PY        -0.26632   0.00000   0.00000  -0.20078   0.00517
 100        6PZ         0.00000  -0.08809   0.00000   0.00000   0.00000
 101        7PX         0.00000   0.00000  -0.24468   0.00000   0.00000
 102        7PY        -0.32217   0.00000   0.00000  -0.24468   0.00425
 103        7PZ         0.00000  -0.12514   0.00000   0.00000   0.00000
 104        8PX         0.00000   0.00000  -0.27175   0.00000   0.00000
 105        8PY        -0.24309   0.00000   0.00000  -0.27175   0.22565
 106        8PZ         0.00000  -0.34975   0.00000   0.00000   0.00000
 107        9PX         0.00000   0.00000  -0.28270   0.00000   0.00000
 108        9PY        -0.03658   0.00000   0.00000  -0.28270  -0.54399
 109        9PZ         0.00000  -0.42758   0.00000   0.00000   0.00000
 110       10D 0        0.00000  -0.00106   0.00000   0.00000   0.00000
 111       10D+1        0.00000   0.00000   0.00519   0.00000   0.00000
 112       10D-1       -0.00502   0.00000   0.00000   0.00519  -0.00420
 113       10D+2        0.00000   0.00000   0.00000   0.00000   0.00000
 114       10D-2        0.00000   0.00000   0.00000   0.00000   0.00000
 115       11D 0        0.00000  -0.01222   0.00000   0.00000   0.00000
 116       11D+1        0.00000   0.00000   0.01742   0.00000   0.00000
 117       11D-1       -0.01700   0.00000   0.00000   0.01742   0.01053
 118       11D+2        0.00000  -0.00000   0.00000   0.00000   0.00000
 119       11D-2        0.00000   0.00000   0.00000   0.00000   0.00000
 120       12D 0        0.00000  -0.04416   0.00000   0.00000   0.00000
 121       12D+1        0.00000   0.00000   0.00352   0.00000   0.00000
 122       12D-1       -0.01238   0.00000   0.00000   0.00352   0.03670
 123       12D+2        0.00000  -0.00000   0.00000   0.00000   0.00000
 124       12D-2        0.00000   0.00000   0.00000   0.00000   0.00000
 125       13F 0        0.00000  -0.00097   0.00000   0.00000   0.00000
 126       13F+1        0.00000   0.00000   0.00258   0.00000   0.00000
 127       13F-1       -0.00318   0.00000   0.00000   0.00258  -0.00093
 128       13F+2        0.00000   0.00000   0.00000   0.00000   0.00000
 129       13F-2        0.00000   0.00000   0.00000   0.00000   0.00000
 130       13F+3        0.00000   0.00000   0.00000   0.00000   0.00000
 131       13F-3       -0.00000   0.00000   0.00000  -0.00000  -0.00000
 132       14F 0        0.00000  -0.00008   0.00000   0.00000   0.00000
 133       14F+1        0.00000   0.00000   0.00006   0.00000   0.00000
 134       14F-1       -0.00406   0.00000   0.00000   0.00006   0.00365
 135       14F+2        0.00000  -0.00000   0.00000   0.00000   0.00000
 136       14F-2        0.00000   0.00000   0.00000   0.00000   0.00000
 137       14F+3        0.00000   0.00000  -0.00000   0.00000   0.00000
 138       14F-3        0.00000   0.00000   0.00000   0.00000   0.00000
                          16        17        18        19        20
                       (PIU)--V  (SGU)--V  (SGG)--V  (SGG)--V  (PIG)--V
     Eigenvalues --     0.08175   0.08317   0.13256   0.16643   0.16807
   1 1   C  1S          0.00000   0.00000   0.07942   0.03613   0.00000
   2        2S          0.00000   0.00000  -0.18775  -0.24337   0.00000
   3        3S          0.00000   0.00000  -0.08205  -0.12424   0.00000
   4        4S          0.00000   0.00000   4.12177  -0.61307   0.00000
   5        5S          0.00000   0.00000   5.41084   2.22631   0.00000
   6        6PX        -0.09415   0.00000   0.00000   0.00000   0.00000
   7        6PY         0.00000   0.00000   0.00000   0.00000   0.00000
   8        6PZ         0.00000  -0.00177   0.00000   0.00000   0.00000
   9        7PX        -0.17624   0.00000   0.00000   0.00000   0.00000
  10        7PY         0.00000   0.00000   0.00000   0.00000   0.00000
  11        7PZ         0.00000  -0.41646   0.00000   0.00000   0.00000
  12        8PX        -0.38588   0.00000   0.00000   0.00000   0.00000
  13        8PY         0.00000   0.00000   0.00000   0.00000   0.00000
  14        8PZ         0.00000  -1.66945   0.00000   0.00000   0.00000
  15        9PX         1.88985   0.00000   0.00000   0.00000   0.00000
  16        9PY         0.00000   0.00000   0.00000   0.00000   0.00000
  17        9PZ         0.00000  -2.25858   0.00000   0.00000   0.00000
  18       10D 0        0.00000   0.00000   0.03796   0.01808   0.00000
  19       10D+1        0.00000   0.00000   0.00000   0.00000   0.00000
  20       10D-1        0.00000   0.00000   0.00000   0.00000  -0.00334
  21       10D+2        0.00000   0.00000  -0.00000   0.00000   0.00000
  22       10D-2        0.00000   0.00000   0.00000   0.00000   0.00000
  23       11D 0        0.00000   0.00000   0.47275   0.16652   0.00000
  24       11D+1        0.00000   0.00000   0.00000   0.00000   0.00000
  25       11D-1        0.00000   0.00000   0.00000   0.00000  -0.36105
  26       11D+2        0.00000   0.00000   0.00000  -0.00000   0.00000
  27       11D-2        0.00000   0.00000   0.00000   0.00000   0.00000
  28       12D 0        0.00000   0.00000   0.78884   1.20491   0.00000
  29       12D+1        0.00000   0.00000   0.00000   0.00000   0.00000
  30       12D-1        0.00000   0.00000   0.00000   0.00000  -1.27110
  31       12D+2        0.00000   0.00000   0.00000   0.00000   0.00000
  32       12D-2        0.00000   0.00000   0.00000   0.00000   0.00000
  33       13F 0        0.00000  -0.02769   0.00000   0.00000   0.00000
  34       13F+1       -0.00292   0.00000   0.00000   0.00000   0.00000
  35       13F-1        0.00000   0.00000   0.00000   0.00000   0.00000
  36       13F+2        0.00000   0.00000   0.00000   0.00000   0.00000
  37       13F-2        0.00000   0.00000   0.00000   0.00000   0.00000
  38       13F+3        0.00000   0.00000   0.00000   0.00000   0.00000
  39       13F-3        0.00000   0.00000   0.00000   0.00000   0.00000
  40       14F 0        0.00000  -0.02422   0.00000   0.00000   0.00000
  41       14F+1       -0.09707   0.00000   0.00000   0.00000   0.00000
  42       14F-1        0.00000   0.00000   0.00000   0.00000   0.00000
  43       14F+2        0.00000  -0.00000   0.00000   0.00000   0.00000
  44       14F-2        0.00000   0.00000   0.00000   0.00000   0.00000
  45       14F+3        0.00000   0.00000   0.00000   0.00000   0.00000
  46       14F-3        0.00000   0.00000   0.00000   0.00000   0.00000
  47 2   O  1S          0.00000  -0.01937  -0.03887  -0.01918   0.00000
  48        2S          0.00000   0.03638   0.14610   0.07828   0.00000
  49        3S          0.00000   0.00567   0.04868   0.02634   0.00000
  50        4S          0.00000   0.65839  -0.79450  -0.54472   0.00000
  51        5S          0.00000   3.02580  -4.30228  -1.27830   0.00000
  52        6PX         0.00517   0.00000   0.00000   0.00000   0.00000
  53        6PY         0.00000   0.00000   0.00000   0.00000  -0.04738
  54        6PZ         0.00000   0.02349  -0.16278  -0.02112   0.00000
  55        7PX         0.00425   0.00000   0.00000   0.00000   0.00000
  56        7PY         0.00000   0.00000   0.00000   0.00000  -0.08553
  57        7PZ         0.00000  -0.01024  -0.15898   0.02739   0.00000
  58        8PX         0.22565   0.00000   0.00000   0.00000   0.00000
  59        8PY         0.00000   0.00000   0.00000   0.00000   0.49228
  60        8PZ         0.00000  -0.50145   0.53509  -0.03471   0.00000
  61        9PX        -0.54399   0.00000   0.00000   0.00000   0.00000
  62        9PY         0.00000   0.00000   0.00000   0.00000   1.84096
  63        9PZ         0.00000  -0.43207   0.97240  -1.24813   0.00000
  64       10D 0        0.00000  -0.00333   0.00170   0.00049   0.00000
  65       10D+1        0.00420   0.00000   0.00000   0.00000   0.00000
  66       10D-1        0.00000   0.00000   0.00000   0.00000   0.00290
  67       10D+2        0.00000  -0.00000   0.00000   0.00000   0.00000
  68       10D-2        0.00000   0.00000   0.00000   0.00000   0.00000
  69       11D 0        0.00000   0.05053  -0.01943  -0.04535   0.00000
  70       11D+1       -0.01053   0.00000   0.00000   0.00000   0.00000
  71       11D-1        0.00000   0.00000   0.00000   0.00000  -0.00556
  72       11D+2        0.00000   0.00000   0.00000  -0.00000   0.00000
  73       11D-2        0.00000   0.00000   0.00000   0.00000   0.00000
  74       12D 0        0.00000   0.08275  -0.15628   0.15972   0.00000
  75       12D+1       -0.03670   0.00000   0.00000   0.00000   0.00000
  76       12D-1        0.00000   0.00000   0.00000   0.00000  -0.33617
  77       12D+2        0.00000   0.00000  -0.00000  -0.00000   0.00000
  78       12D-2        0.00000   0.00000   0.00000   0.00000   0.00000
  79       13F 0        0.00000  -0.00265   0.00032   0.00431   0.00000
  80       13F+1       -0.00093   0.00000   0.00000   0.00000   0.00000
  81       13F-1        0.00000   0.00000   0.00000   0.00000  -0.00740
  82       13F+2        0.00000   0.00000  -0.00000   0.00000   0.00000
  83       13F-2        0.00000   0.00000   0.00000   0.00000   0.00000
  84       13F+3        0.00000   0.00000   0.00000   0.00000   0.00000
  85       13F-3        0.00000   0.00000   0.00000   0.00000  -0.00000
  86       14F 0        0.00000  -0.01884  -0.00410  -0.01461   0.00000
  87       14F+1        0.00365   0.00000   0.00000   0.00000   0.00000
  88       14F-1        0.00000   0.00000   0.00000   0.00000   0.05567
  89       14F+2        0.00000  -0.00000   0.00000  -0.00000   0.00000
  90       14F-2        0.00000   0.00000   0.00000   0.00000   0.00000
  91       14F+3       -0.00000   0.00000   0.00000   0.00000   0.00000
  92       14F-3        0.00000   0.00000   0.00000   0.00000   0.00000
  93 3   O  1S          0.00000   0.01937  -0.03887  -0.01918   0.00000
  94        2S          0.00000  -0.03638   0.14610   0.07828   0.00000
  95        3S          0.00000  -0.00567   0.04868   0.02634   0.00000
  96        4S          0.00000  -0.65839  -0.79450  -0.54472   0.00000
  97        5S          0.00000  -3.02580  -4.30228  -1.27830   0.00000
  98        6PX         0.00517   0.00000   0.00000   0.00000   0.00000
  99        6PY         0.00000   0.00000   0.00000   0.00000   0.04738
 100        6PZ         0.00000   0.02349   0.16278   0.02112   0.00000
 101        7PX         0.00425   0.00000   0.00000   0.00000   0.00000
 102        7PY         0.00000   0.00000   0.00000   0.00000   0.08553
 103        7PZ         0.00000  -0.01024   0.15898  -0.02739   0.00000
 104        8PX         0.22565   0.00000   0.00000   0.00000   0.00000
 105        8PY         0.00000   0.00000   0.00000   0.00000  -0.49228
 106        8PZ         0.00000  -0.50145  -0.53509   0.03471   0.00000
 107        9PX        -0.54399   0.00000   0.00000   0.00000   0.00000
 108        9PY         0.00000   0.00000   0.00000   0.00000  -1.84096
 109        9PZ         0.00000  -0.43207  -0.97240   1.24813   0.00000
 110       10D 0        0.00000   0.00333   0.00170   0.00049   0.00000
 111       10D+1       -0.00420   0.00000   0.00000   0.00000   0.00000
 112       10D-1        0.00000   0.00000   0.00000   0.00000   0.00290
 113       10D+2        0.00000   0.00000   0.00000   0.00000   0.00000
 114       10D-2        0.00000   0.00000   0.00000   0.00000   0.00000
 115       11D 0        0.00000  -0.05053  -0.01943  -0.04535   0.00000
 116       11D+1        0.01053   0.00000   0.00000   0.00000   0.00000
 117       11D-1        0.00000   0.00000   0.00000   0.00000  -0.00556
 118       11D+2        0.00000  -0.00000   0.00000  -0.00000   0.00000
 119       11D-2        0.00000   0.00000   0.00000   0.00000   0.00000
 120       12D 0        0.00000  -0.08275  -0.15628   0.15972   0.00000
 121       12D+1        0.03670   0.00000   0.00000   0.00000   0.00000
 122       12D-1        0.00000   0.00000   0.00000   0.00000  -0.33617
 123       12D+2        0.00000  -0.00000  -0.00000  -0.00000   0.00000
 124       12D-2        0.00000   0.00000   0.00000   0.00000   0.00000
 125       13F 0        0.00000  -0.00265  -0.00032  -0.00431   0.00000
 126       13F+1       -0.00093   0.00000   0.00000   0.00000   0.00000
 127       13F-1        0.00000   0.00000   0.00000   0.00000   0.00740
 128       13F+2        0.00000   0.00000   0.00000  -0.00000   0.00000
 129       13F-2        0.00000   0.00000   0.00000   0.00000   0.00000
 130       13F+3        0.00000   0.00000   0.00000   0.00000   0.00000
 131       13F-3        0.00000   0.00000   0.00000   0.00000   0.00000
 132       14F 0        0.00000  -0.01884   0.00410   0.01461   0.00000
 133       14F+1        0.00365   0.00000   0.00000   0.00000   0.00000
 134       14F-1        0.00000   0.00000   0.00000   0.00000  -0.05567
 135       14F+2        0.00000  -0.00000  -0.00000   0.00000   0.00000
 136       14F-2        0.00000   0.00000   0.00000   0.00000   0.00000
 137       14F+3       -0.00000   0.00000   0.00000   0.00000   0.00000
 138       14F-3        0.00000   0.00000   0.00000   0.00000  -0.00000
                          21        22        23        24        25
                       (PIG)--V  (SGU)--V  (PIU)--V  (PIU)--V  (DLTG)--
     Eigenvalues --     0.16807   0.22511   0.24144   0.24144   0.27156
   1 1   C  1S          0.00000   0.00000   0.00000   0.00000  -0.00000
   2        2S          0.00000   0.00000   0.00000   0.00000   0.00000
   3        3S          0.00000   0.00000   0.00000   0.00000  -0.00000
   4        4S          0.00000   0.00000   0.00000   0.00000   0.00000
   5        5S          0.00000   0.00000   0.00000   0.00000   0.00000
   6        6PX         0.00000   0.00000   0.03460   0.00000   0.00000
   7        6PY         0.00000   0.00000   0.00000   0.03460   0.00000
   8        6PZ         0.00000  -0.02432   0.00000   0.00000   0.00000
   9        7PX         0.00000   0.00000   0.11121   0.00000   0.00000
  10        7PY         0.00000   0.00000   0.00000   0.11121   0.00000
  11        7PZ         0.00000  -0.23277   0.00000   0.00000   0.00000
  12        8PX         0.00000   0.00000   1.19240   0.00000   0.00000
  13        8PY         0.00000   0.00000   0.00000   1.19240   0.00000
  14        8PZ         0.00000  -3.43455   0.00000   0.00000   0.00000
  15        9PX         0.00000   0.00000   2.75510   0.00000   0.00000
  16        9PY         0.00000   0.00000   0.00000   2.75510   0.00000
  17        9PZ         0.00000   2.25633   0.00000   0.00000   0.00000
  18       10D 0        0.00000   0.00000   0.00000   0.00000  -0.00000
  19       10D+1       -0.00334   0.00000   0.00000   0.00000   0.00000
  20       10D-1        0.00000   0.00000   0.00000   0.00000   0.00000
  21       10D+2        0.00000   0.00000   0.00000   0.00000   0.03550
  22       10D-2        0.00000   0.00000   0.00000   0.00000   0.00000
  23       11D 0        0.00000   0.00000   0.00000   0.00000   0.00000
  24       11D+1       -0.36105   0.00000   0.00000   0.00000   0.00000
  25       11D-1        0.00000   0.00000   0.00000   0.00000   0.00000
  26       11D+2        0.00000   0.00000   0.00000   0.00000  -0.02592
  27       11D-2        0.00000   0.00000   0.00000   0.00000   0.00000
  28       12D 0        0.00000   0.00000   0.00000   0.00000   0.00000
  29       12D+1       -1.27110   0.00000   0.00000   0.00000   0.00000
  30       12D-1        0.00000   0.00000   0.00000   0.00000   0.00000
  31       12D+2        0.00000   0.00000   0.00000   0.00000   1.04263
  32       12D-2        0.00000   0.00000   0.00000   0.00000   0.00000
  33       13F 0        0.00000   0.00133   0.00000   0.00000   0.00000
  34       13F+1        0.00000   0.00000   0.00075   0.00000   0.00000
  35       13F-1        0.00000   0.00000   0.00000   0.00075   0.00000
  36       13F+2        0.00000  -0.00000   0.00000   0.00000   0.00000
  37       13F-2        0.00000   0.00000   0.00000   0.00000   0.00000
  38       13F+3        0.00000   0.00000   0.00000   0.00000   0.00000
  39       13F-3        0.00000   0.00000   0.00000  -0.00000   0.00000
  40       14F 0        0.00000  -0.25547   0.00000   0.00000   0.00000
  41       14F+1        0.00000   0.00000   0.09271   0.00000   0.00000
  42       14F-1        0.00000   0.00000   0.00000   0.09271   0.00000
  43       14F+2        0.00000   0.00000   0.00000   0.00000   0.00000
  44       14F-2        0.00000   0.00000   0.00000   0.00000   0.00000
  45       14F+3        0.00000   0.00000  -0.00000   0.00000   0.00000
  46       14F-3        0.00000   0.00000   0.00000   0.00000   0.00000
  47 2   O  1S          0.00000  -0.00107   0.00000   0.00000   0.00000
  48        2S          0.00000  -0.01187   0.00000   0.00000   0.00000
  49        3S          0.00000  -0.00184   0.00000   0.00000  -0.00000
  50        4S          0.00000   1.19631   0.00000   0.00000  -0.00000
  51        5S          0.00000   3.75143   0.00000   0.00000  -0.00000
  52        6PX        -0.04738   0.00000   0.07843   0.00000   0.00000
  53        6PY         0.00000   0.00000   0.00000   0.07843   0.00000
  54        6PZ         0.00000   0.01462   0.00000   0.00000   0.00000
  55        7PX        -0.08553   0.00000   0.07210   0.00000   0.00000
  56        7PY         0.00000   0.00000   0.00000   0.07210   0.00000
  57        7PZ         0.00000  -0.03255   0.00000   0.00000   0.00000
  58        8PX         0.49228   0.00000  -0.01646   0.00000   0.00000
  59        8PY         0.00000   0.00000   0.00000  -0.01646   0.00000
  60        8PZ         0.00000  -0.37842   0.00000   0.00000   0.00000
  61        9PX         1.84096   0.00000  -2.34112   0.00000   0.00000
  62        9PY         0.00000   0.00000   0.00000  -2.34112   0.00000
  63        9PZ         0.00000  -3.47802   0.00000   0.00000   0.00000
  64       10D 0        0.00000  -0.00204   0.00000   0.00000   0.00000
  65       10D+1        0.00290   0.00000   0.00045   0.00000   0.00000
  66       10D-1        0.00000   0.00000   0.00000   0.00045   0.00000
  67       10D+2        0.00000  -0.00000   0.00000   0.00000   0.00176
  68       10D-2        0.00000   0.00000   0.00000   0.00000   0.00000
  69       11D 0        0.00000  -0.00726   0.00000   0.00000  -0.00000
  70       11D+1       -0.00556   0.00000  -0.02803   0.00000   0.00000
  71       11D-1        0.00000   0.00000   0.00000  -0.02803   0.00000
  72       11D+2        0.00000  -0.00000   0.00000   0.00000   0.03441
  73       11D-2        0.00000   0.00000   0.00000   0.00000   0.00000
  74       12D 0        0.00000   0.05543   0.00000   0.00000  -0.00000
  75       12D+1       -0.33617   0.00000   0.23772   0.00000   0.00000
  76       12D-1        0.00000   0.00000   0.00000   0.23772   0.00000
  77       12D+2        0.00000  -0.00000   0.00000   0.00000  -0.04329
  78       12D-2        0.00000   0.00000   0.00000   0.00000   0.00000
  79       13F 0        0.00000   0.00176   0.00000   0.00000   0.00000
  80       13F+1       -0.00740   0.00000   0.00518   0.00000   0.00000
  81       13F-1        0.00000   0.00000   0.00000   0.00518   0.00000
  82       13F+2        0.00000  -0.00000   0.00000   0.00000  -0.00151
  83       13F-2        0.00000   0.00000   0.00000   0.00000   0.00000
  84       13F+3        0.00000   0.00000  -0.00000   0.00000   0.00000
  85       13F-3        0.00000   0.00000   0.00000   0.00000   0.00000
  86       14F 0        0.00000  -0.01488   0.00000   0.00000  -0.00000
  87       14F+1        0.05567   0.00000  -0.02005   0.00000   0.00000
  88       14F-1        0.00000   0.00000   0.00000  -0.02005   0.00000
  89       14F+2        0.00000   0.00000   0.00000   0.00000  -0.00490
  90       14F-2        0.00000   0.00000   0.00000   0.00000   0.00000
  91       14F+3       -0.00000   0.00000   0.00000   0.00000   0.00000
  92       14F-3        0.00000   0.00000   0.00000  -0.00000   0.00000
  93 3   O  1S          0.00000   0.00107   0.00000   0.00000   0.00000
  94        2S          0.00000   0.01187   0.00000   0.00000   0.00000
  95        3S          0.00000   0.00184   0.00000   0.00000  -0.00000
  96        4S          0.00000  -1.19631   0.00000   0.00000  -0.00000
  97        5S          0.00000  -3.75143   0.00000   0.00000  -0.00000
  98        6PX         0.04738   0.00000   0.07843   0.00000   0.00000
  99        6PY         0.00000   0.00000   0.00000   0.07843   0.00000
 100        6PZ         0.00000   0.01462   0.00000   0.00000  -0.00000
 101        7PX         0.08553   0.00000   0.07210   0.00000   0.00000
 102        7PY         0.00000   0.00000   0.00000   0.07210   0.00000
 103        7PZ         0.00000  -0.03255   0.00000   0.00000  -0.00000
 104        8PX        -0.49228   0.00000  -0.01646   0.00000   0.00000
 105        8PY         0.00000   0.00000   0.00000  -0.01646   0.00000
 106        8PZ         0.00000  -0.37842   0.00000   0.00000  -0.00000
 107        9PX        -1.84096   0.00000  -2.34112   0.00000   0.00000
 108        9PY         0.00000   0.00000   0.00000  -2.34112   0.00000
 109        9PZ         0.00000  -3.47802   0.00000   0.00000  -0.00000
 110       10D 0        0.00000   0.00204   0.00000   0.00000   0.00000
 111       10D+1        0.00290   0.00000  -0.00045   0.00000   0.00000
 112       10D-1        0.00000   0.00000   0.00000  -0.00045   0.00000
 113       10D+2        0.00000   0.00000   0.00000   0.00000   0.00176
 114       10D-2        0.00000   0.00000   0.00000   0.00000   0.00000
 115       11D 0        0.00000   0.00726   0.00000   0.00000  -0.00000
[...]
 (Enter /Users/asuyarger/Applications/G16/g16/l716.exe)
 Dipole        =-9.79295481D-17-3.85185989D-34 8.88178420D-16
 Polarizability= 1.26911451D+01 1.06575535D-18 1.26911451D+01
                -1.09259136D-15 8.79177422D-31 2.57503146D+01
 HyperPolar    = 6.59975059D-11-1.16139310D-11 1.96551048D-11
                -1.98583394D-11-8.97376031D-12-1.30925651D-11
                 3.50270908D-11-9.30653544D-12 3.92669911D-11
                -9.24488337D-11
 Full mass-weighted force constant matrix:
 Low frequencies ---   -3.0123   -3.0123   -0.0014    0.0010    0.0011  686.4310
 Low frequencies ---  686.4310 1397.2163 2443.4913
 Diagonal vibrational polarizability:
        1.7982919       1.7982919       3.2697589
 Diagonal vibrational hyperpolarizability:
       -0.0000000       0.0000000      -0.0000000
 Harmonic frequencies (cm**-1), IR intensities (KM/Mole), Raman scattering
 activities (A**4/AMU), depolarization ratios for plane and unpolarized
 incident light, reduced masses (AMU), force constants (mDyne/A),
 and normal coordinates:
                      1                      2                      3
                     PIU                    PIU                    SGG
 Frequencies --    686.4310               686.4310              1397.2163
 Red. masses --     12.8774                12.8774                15.9949
 Frc consts  --      3.5750                 3.5750                18.3975
 IR Inten    --     31.4862                31.4862                 0.0000
 Raman Activ --      0.0000                 0.0000                21.0292
 Depolar (P) --      0.0000                 0.0000                 0.1041
 Depolar (U) --      0.0000                 0.0000                 0.1885
  Atom  AN      X      Y      Z        X      Y      Z        X      Y      Z
     1   6    -0.01   0.88   0.00     0.88   0.01   0.00    -0.00   0.00   0.00
     2   8     0.00  -0.33  -0.00    -0.33  -0.00  -0.00     0.00  -0.00   0.71
     3   8     0.00  -0.33   0.00    -0.33  -0.00  -0.00     0.00  -0.00  -0.71
                      4
                     SGU
 Frequencies --   2443.4913
 Red. masses --     12.8774
 Frc consts  --     45.3001
 IR Inten    --    725.4445
 Raman Activ --      0.0000
 Depolar (P) --      0.0000
 Depolar (U) --      0.0000
  Atom  AN      X      Y      Z
     1   6    -0.00  -0.00   0.88
     2   8     0.00   0.00  -0.33
     3   8     0.00   0.00  -0.33

 -------------------
 - Thermochemistry -
 -------------------
 Temperature   298.150 Kelvin.  Pressure   1.00000 Atm.
 Atom     1 has atomic number  6 and mass  12.00000
 Atom     2 has atomic number  8 and mass  15.99491
 Atom     3 has atomic number  8 and mass  15.99491
 Molecular mass:    43.98983 amu.
 Principal axes and moments of inertia in atomic units:
                           1         2         3
     Eigenvalues --     0.00000 152.79132 152.79132
           X           -0.00000   1.00000  -0.00000
           Y            0.00000   0.00000   1.00000
           Z            1.00000   0.00000  -0.00000
 This molecule is a prolate symmetric top.
 Rotational symmetry number  2.
 Rotational temperature (Kelvin)      0.56688
 Rotational constant (GHZ):          11.811805
 Zero-point vibrational energy      31184.1 (Joules/Mol)
                                    7.45317 (Kcal/Mol)
 Vibrational temperatures:    987.62   987.62  2010.28  3515.64
          (Kelvin)
 
 Zero-point correction=                           0.011877 (Hartree/Particle)
 Thermal correction to Energy=                    0.014482
 Thermal correction to Enthalpy=                  0.015426
 Thermal correction to Gibbs Free Energy=        -0.008803
 Sum of electronic and zero-point Energies=           -188.586595
 Sum of electronic and thermal Energies=              -188.583991
 Sum of electronic and thermal Enthalpies=            -188.583047
 Sum of electronic and thermal Free Energies=         -188.607276
 
                     E (Thermal)             CV                S
                      KCal/Mol        Cal/Mol-Kelvin    Cal/Mol-Kelvin
 Total                    9.088              6.788             50.994
 Electronic               0.000              0.000              0.000
 Translational            0.889              2.981             37.270
 Rotational               0.592              1.987             13.060
 Vibrational              7.606              1.820              0.664
                       Q            Log10(Q)             Ln(Q)
 Total Bot       0.111926D+05          4.048930          9.323006
 Total V=0       0.325194D+10          9.512143         21.902519
 Vib (Bot)       0.371135D-05         -5.430468        -12.504115
 Vib (V=0)       0.107831D+01          0.032745          0.075398
 Electronic      0.100000D+01          0.000000          0.000000
 Translational   0.114679D+08          7.059482         16.255059
 Rotational      0.262976D+03          2.419916          5.572062
 
                                          CO2 DFT uWB97XD aug-cc-pVTZ Opt Freq - 
 Full - NBO
                                                             IR Spectrum
 
     2                                                      1                                                                        
     4                                                      3                                    6                                   
     4                                                      9                                    8                                   
     3                                                      7                                    6                                   
 
     X                                                                                           X                                   
     X                                                                                           X                                   
     X                                                                                                                               
     X                                                                                                                               
     X                                                                                                                               
     X                                                                                                                               
     X                                                                                                                               
     X                                                                                                                               
     X                                                                                                                               
     X                                                                                                                               
     X                                                                                                                               
     X                                                                                                                               
     X                                                                                                                               
     X                                                                                                                               
     X                                                                                                                               
     X                                                                                                                               
     X                                                                                                                               
     X                                                                                                                               
     X                                                                                                                               
     X                                                                                                                               
 
 
                                          CO2 DFT uWB97XD aug-cc-pVTZ Opt Freq - 
 Full - NBO
                                                            Raman Spectrum
 
     2                                                      1                                                                        
     4                                                      3                                    6                                   
     4                                                      9                                    8                                   
     3                                                      7                                    6                                   
 
                                                            X                                                                        
                                                            X                                                                        
                                                            X                                                                        
                                                            X                                                                        
                                                            X                                                                        
                                                            X                                                                        
                                                            X                                                                        
                                                            X                                                                        
                                                            X                                                                        
                                                            X                                                                        
                                                            X                                                                        
                                                            X                                                                        
                                                            X                                                                        
                                                            X                                                                        
                                                            X                                                                        
                                                            X                                                                        
                                                            X                                                                        
                                                            X                                                                        
                                                            X                                                                        
                                                            X                                                                        
 
 ***** Axes restored to original set *****
 -------------------------------------------------------------------
 Center     Atomic                   Forces (Hartrees/Bohr)
 Number     Number              X              Y              Z
 -------------------------------------------------------------------
      1        6           0.000000000    0.000000000   -0.000000000
      2        8          -0.000000177    0.000000000   -0.000000000
      3        8           0.000000177   -0.000000000    0.000000000
 -------------------------------------------------------------------
 Cartesian Forces:  Max     0.000000177 RMS     0.000000083
 Force constants in Cartesian coordinates: 
                1             2             3             4             5 
      1  0.197176D+01
      2  0.000000D+00  0.155606D+00
      3  0.000000D+00  0.000000D+00  0.155606D+00
      4 -0.985880D+00  0.000000D+00  0.000000D+00  0.108378D+01
      5  0.000000D+00 -0.778030D-01  0.000000D+00  0.000000D+00  0.388987D-01
      6  0.000000D+00  0.000000D+00 -0.778030D-01  0.000000D+00  0.000000D+00
      7 -0.985880D+00  0.000000D+00  0.000000D+00 -0.979012D-01  0.000000D+00
      8  0.000000D+00 -0.778030D-01  0.000000D+00  0.000000D+00  0.389042D-01
      9  0.000000D+00  0.000000D+00 -0.778030D-01  0.000000D+00  0.000000D+00
                6             7             8             9 
      6  0.388987D-01
      7  0.000000D+00  0.108378D+01
      8  0.000000D+00  0.000000D+00  0.388987D-01
      9  0.389042D-01  0.000000D+00  0.000000D+00  0.388987D-01
 FormGI is forming the generalized inverse of G from B-inverse, IUseBI=4.
 Force constants in internal coordinates: 
                1             2             3             4 
      1  0.108378D+01
      2  0.979012D-01  0.108378D+01
      3  0.000000D+00  0.000000D+00  0.185803D+00
      4  0.000000D+00  0.000000D+00  0.000000D+00  0.185803D+00
 Leave Link  716 at Fri Sep  6 10:51:22 2024, MaxMem=   104857600 cpu:               0.0 elap:               0.0
 (Enter /Users/asuyarger/Applications/G16/g16/l103.exe)

 GradGradGradGradGradGradGradGradGradGradGradGradGradGradGradGradGradGrad
 Berny optimization.
 Red2BG is reusing G-inverse.
 Internal  Forces:  Max     0.000000177 RMS     0.000000125
 Search for a local minimum.
 Step number   1 out of a maximum of    2
 All quantities printed in internal units (Hartrees-Bohrs-Radians)
 Second derivative matrix not updated -- analytic derivatives used.
 The second derivative matrix:
                          R1        R2        A1        A2
           R1           1.08378
           R2           0.09790   1.08378
           A1          -0.00000   0.00000   0.18580
           A2          -0.00000  -0.00000   0.00000   0.18580
 ITU=  0
     Eigenvalues ---    0.18580   0.18580   0.98588   1.18168
 Angle between quadratic step and forces=  90.00 degrees.
 Linear search not attempted -- first point.
 Iteration  1 RMS(Cart)=  0.00000011 RMS(Int)=  0.00000000
 ITry= 1 IFail=0 DXMaxC= 1.50D-07 DCOld= 1.00D+10 DXMaxT= 3.00D-01 DXLimC= 3.00D+00 Rises=F
 ClnCor:  largest displacement from symmetrization is 3.00D-14 for atom     1.
 Variable       Old X    -DE/DX   Delta X   Delta X   Delta X     New X
                                 (Linear)    (Quad)   (Total)
    R1        2.18546  -0.00000   0.00000  -0.00000  -0.00000   2.18546
    R2        2.18546  -0.00000   0.00000  -0.00000  -0.00000   2.18546
    A1        3.14159  -0.00000   0.00000  -0.00000   0.00000   3.14159
    A2        3.14159  -0.00000   0.00000  -0.00000   0.00000   3.14159
         Item               Value     Threshold  Converged?
 Maximum Force            0.000000     0.000015     YES
 RMS     Force            0.000000     0.000010     YES
 Maximum Displacement     0.000000     0.000060     YES
 RMS     Displacement     0.000000     0.000040     YES
 Predicted change in Energy=-2.644454D-14
 Optimization completed.
    -- Stationary point found.
                           ----------------------------
                           !   Optimized Parameters   !
                           ! (Angstroms and Degrees)  !
 --------------------------                            --------------------------
 ! Name  Definition              Value          Derivative Info.                !
 --------------------------------------------------------------------------------
 ! R1    R(1,2)                  1.1565         -DE/DX =    0.0                 !
 ! R2    R(1,3)                  1.1565         -DE/DX =    0.0                 !
 ! A1    L(2,1,3,-2,-1)        180.0            -DE/DX =    0.0                 !
 ! A2    L(2,1,3,-3,-2)        180.0            -DE/DX =    0.0                 !
 --------------------------------------------------------------------------------
 GradGradGradGradGradGradGradGradGradGradGradGradGradGradGradGradGradGrad

 Leave Link  103 at Fri Sep  6 10:51:22 2024, MaxMem=   104857600 cpu:               0.0 elap:               0.0
 (Enter /Users/asuyarger/Applications/G16/g16/l9999.exe)
 Dipole is zero, so no output in dipole orientation.

 ----------------------------------------------------------------------

 Electric dipole moment (input orientation):
 (Debye = 10**-18 statcoulomb cm , SI units = C m)
                  (au)            (Debye)         (10**-30 SI)
   Tot        0.000000D+00      0.000000D+00      0.000000D+00
   x          0.000000D+00      0.000000D+00      0.000000D+00
   y          0.000000D+00      0.000000D+00      0.000000D+00
   z          0.000000D+00      0.000000D+00      0.000000D+00

 Dipole polarizability, Alpha (input orientation).
 (esu units = cm**3 , SI units = C**2 m**2 J**-1)
 Alpha(0;0):
               (au)            (10**-24 esu)      (10**-40 SI)
   iso        0.170442D+02      0.252569D+01      0.281021D+01
   aniso      0.130592D+02      0.193517D+01      0.215317D+01
   xx         0.257503D+02      0.381580D+01      0.424565D+01
   yx         0.000000D+00      0.000000D+00      0.000000D+00
   yy         0.126911D+02      0.188063D+01      0.209249D+01
   zx         0.000000D+00      0.000000D+00      0.000000D+00
   zy         0.000000D+00      0.000000D+00      0.000000D+00
   zz         0.126911D+02      0.188063D+01      0.209249D+01

 ----------------------------------------------------------------------
 1\1\GINC-JEFFSMACSTUDIO\Freq\UwB97XD\Aug-CC-pVTZ\C1O2\ROOT\06-Sep-2024
 \0\\#P Geom=AllCheck Guess=TCheck SCRF=Check GenChk UwB97XD/Aug-CC-pVT
 Z Freq\\CO2 DFT uWB97XD aug-cc-pVTZ Opt Freq - Full - NBO\\0,1\C,0.135
 62386,0.24412296,0.\O,1.2921208541,0.24412296,0.\O,-1.0208731341,0.244
 12296,0.\\Version=EM64M-G16RevA.03\State=1-SGG\HF=-188.5984729\S2=0.\S
 2-1=0.\S2A=0.\RMSD=4.842e-09\RMSF=8.333e-08\ZeroPoint=0.0118774\Therma
 l=0.0144819\Dipole=0.,0.,0.\DipoleDeriv=2.5482787,0.,0.,0.,0.5308908,0
 .,0.,0.,0.5308908,-1.2741393,0.,0.,0.,-0.2654454,0.,0.,0.,-0.2654454,-
 1.2741393,0.,0.,0.,-0.2654454,0.,0.,0.,-0.2654454\Polar=25.7503146,0.,
 12.6911451,0.,0.,12.6911451\PolarDeriv=0.,0.,0.,0.,0.,0.,0.,0.,0.,0.,0
 .,0.,0.,0.,0.,0.,0.,0.,11.5698724,0.,3.3612297,0.,0.,3.3612297,0.,2.98
 72709,0.,0.,0.,0.,0.,0.,0.,2.9872709,0.,0.,-11.5698724,0.,-3.3612297,0
 .,0.,-3.3612297,0.,-2.9872709,0.,0.,0.,0.,0.,0.,0.,-2.9872709,0.,0.\Hy
 perPolar=0.,0.,0.,0.,0.,0.,0.,0.,0.,0.\Quadrupole=-2.1908074,1.0954037
 ,1.0954037,0.,0.,0.\PG=D*H [O(C1),C*(O1.O1)]\NImag=0\\1.97175940,0.,0.
 15560590,0.,0.,0.15560590,-0.98587970,0.,0.,1.08378092,0.,-0.07780295,
 0.,0.,0.03889873,0.,0.,-0.07780295,0.,0.,0.03889873,-0.98587970,0.,0.,
 -0.09790122,0.,0.,1.08378092,0.,-0.07780295,0.,0.,0.03890422,0.,0.,0.0
 3889873,0.,0.,-0.07780295,0.,0.,0.03890422,0.,0.,0.03889873\\0.,0.,0.,
 0.00000018,0.,0.,-0.00000018,0.,0.\\\@


 WE TEND TO MEET ANY NEW SITUATION BY REORGANIZING. IT CAN BE A
 WONDERFUL METHOD FOR CREATING THE ILLUSION OF PROGRESS WHILE PRODUCING
 CONFUSION, INEFFICIENCY, AND DEMORALIZATION.
     -- PETRONIUS ARBITER, 210 B.C.
 Job cpu time:       0 days  0 hours  1 minutes 18.8 seconds.
 Elapsed time:       0 days  0 hours  1 minutes 20.7 seconds.
 File lengths (MBytes):  RWF=     23 Int=      0 D2E=      0 Chk=      3 Scr=      1
 Normal termination of Gaussian 16 at Fri Sep  6 10:51:22 2024.
