 Entering Gaussian System, Link 0=g16
 Input=/Users/asuyarger/Downloads/CO2_DFT_uB3LPY_apVTZ_Opt_Freq_Full_NBO.gjf
 Output=/Users/asuyarger/Downloads/CO2_DFT_uB3LPY_apVTZ_Opt_Freq_Full_NBO.log
 Initial command:
 /Users/asuyarger/Applications/G16/g16/l1.exe "/Users/asuyarger/Applications/G16/scratch/Gau-88859.inp" -scrdir="/Users/asuyarger/Applications/G16/scratch/"
 Entering Link 1 = /Users/asuyarger/Applications/G16/g16/l1.exe PID=     88860.
  
 Copyright (c) 1988,1990,1992,1993,1995,1998,2003,2009,2016,
            Gaussian, Inc.  All Rights Reserved.
  
 This is part of the Gaussian(R) 16 program.  It is based on
 the Gaussian(R) 09 system (copyright 2009, Gaussian, Inc.),
 the Gaussian(R) 03 system (copyright 2003, Gaussian, Inc.),
 the Gaussian(R) 98 system (copyright 1998, Gaussian, Inc.),
 the Gaussian(R) 94 system (copyright 1995, Gaussian, Inc.),
 the Gaussian 92(TM) system (copyright 1992, Gaussian, Inc.),
 the Gaussian 90(TM) system (copyright 1990, Gaussian, Inc.),
 the Gaussian 88(TM) system (copyright 1988, Gaussian, Inc.),
 the Gaussian 86(TM) system (copyright 1986, Carnegie Mellon
 University), and the Gaussian 82(TM) system (copyright 1983,
 Carnegie Mellon University). Gaussian is a federally registered
 trademark of Gaussian, Inc.
  
 This software contains proprietary and confidential information,
 including trade secrets, belonging to Gaussian, Inc.
  
 This software is provided under written license and may be
 used, copied, transmitted, or stored only in accord with that
 written license.
  
 The following legend is applicable only to US Government
 contracts under FAR:
  
                    RESTRICTED RIGHTS LEGEND
  
 Use, reproduction and disclosure by the US Government is
 subject to restrictions as set forth in subparagraphs (a)
 and (c) of the Commercial Computer Software - Restricted
 Rights clause in FAR 52.227-19.
  
 Gaussian, Inc.
 340 Quinnipiac St., Bldg. 40, Wallingford CT 06492
  
  
 ---------------------------------------------------------------
 Warning -- This program may not be used in any manner that
 competes with the business of Gaussian, Inc. or will provide
 assistance to any competitor of Gaussian, Inc.  The licensee
 of this program is prohibited from giving any competitor of
 Gaussian, Inc. access to this program.  By using this program,
 the user acknowledges that Gaussian, Inc. is engaged in the
 business of creating and licensing software in the field of
 computational chemistry and represents and warrants to the
 licensee that it is not a competitor of Gaussian, Inc. and that
 it will not use this program in any manner prohibited above.
 ---------------------------------------------------------------
  

 Cite this work as:
 Gaussian 16, Revision A.03,
 M. J. Frisch, G. W. Trucks, H. B. Schlegel, G. E. Scuseria, 
 M. A. Robb, J. R. Cheeseman, G. Scalmani, V. Barone, 
 G. A. Petersson, H. Nakatsuji, X. Li, M. Caricato, A. V. Marenich, 
 J. Bloino, B. G. Janesko, R. Gomperts, B. Mennucci, H. P. Hratchian, 
 J. V. Ortiz, A. F. Izmaylov, J. L. Sonnenberg, D. Williams-Young, 
 F. Ding, F. Lipparini, F. Egidi, J. Goings, B. Peng, A. Petrone, 
 T. Henderson, D. Ranasinghe, V. G. Zakrzewski, J. Gao, N. Rega, 
 G. Zheng, W. Liang, M. Hada, M. Ehara, K. Toyota, R. Fukuda, 
 J. Hasegawa, M. Ishida, T. Nakajima, Y. Honda, O. Kitao, H. Nakai, 
 T. Vreven, K. Throssell, J. A. Montgomery, Jr., J. E. Peralta, 
 F. Ogliaro, M. J. Bearpark, J. J. Heyd, E. N. Brothers, K. N. Kudin, 
 V. N. Staroverov, T. A. Keith, R. Kobayashi, J. Normand, 
 K. Raghavachari, A. P. Rendell, J. C. Burant, S. S. Iyengar, 
 J. Tomasi, M. Cossi, J. M. Millam, M. Klene, C. Adamo, R. Cammi, 
 J. W. Ochterski, R. L. Martin, K. Morokuma, O. Farkas, 
 J. B. Foresman, and D. J. Fox, Gaussian, Inc., Wallingford CT, 2016.
 
 ******************************************
 Gaussian 16:  EM64M-G16RevA.03 25-Dec-2016
                 6-Sep-2024 
 ******************************************
 %nprocshared=8
 Will use up to    8 processors via shared memory.
 %mem=8GB
 %chk=CO2_DFT_uB3LPY_apVTZ_Opt_Freq_Full_NBO.chk
 ----------------------------------------------------------------------
 #p opt=tight freq=raman uhf/aug-cc-pvtz guess=save pop=(hirshfeld,full
 ,nbo) geom=connectivity polar
 ----------------------------------------------------------------------
 1/7=10,18=20,19=15,38=1,57=2/1,3;
 2/9=110,12=2,17=6,18=5,40=1/2;
 3/5=16,6=1,7=10,11=2,25=1,30=1,71=1,116=2/1,2,3;
 4//1;
 5/5=2,38=5,98=1/2;
 6/7=3,28=1,40=1,79=1/1,7;
 7//1,2,3,16;
 1/7=10,18=20,19=15/3(2);
 2/9=110/2;
 99//99;
 2/9=110/2;
 3/5=16,6=1,7=10,11=2,25=1,30=1,71=1,116=2/1,2,3;
 4/5=5,16=3,69=1/1;
 5/5=2,38=5,98=1/2;
 7//1,2,3,16;
 1/7=10,18=20,19=15/3(-5);
 2/9=110/2;
 6/7=3,19=2,28=1,40=1,79=1/1,7;
 99/9=1/99;
 Leave Link    1 at Fri Sep  6 10:33:27 2024, MaxMem=  1073741824 cpu:               0.2 elap:               0.0
 (Enter /Users/asuyarger/Applications/G16/g16/l101.exe)
 ---------------------------------------------
 CO2 uHF 6-311++g(2d,3p) Opt Freq - Full - NBO
 ---------------------------------------------
 Symbolic Z-matrix:
 Charge =  0 Multiplicity = 1
 C                    -0.78662   0.11754   0. 
 O                     0.47178   0.11754   0. 
 O                    -2.04502   0.11754   0. 
 
 ITRead=  0  0  0
 MicOpt= -1 -1 -1
 NAtoms=      3 NQM=        3 NQMF=       0 NMMI=      0 NMMIF=      0
                NMic=       0 NMicF=      0.
                    Isotopes and Nuclear Properties:
 (Nuclear quadrupole moments (NQMom) in fm**2, nuclear magnetic moments (NMagM)
  in nuclear magnetons)

  Atom         1           2           3
 IAtWgt=          12          16          16
 AtmWgt=  12.0000000  15.9949146  15.9949146
 NucSpn=           0           0           0
 AtZEff=  -0.0000000  -0.0000000  -0.0000000
 NQMom=    0.0000000   0.0000000   0.0000000
 NMagM=    0.0000000   0.0000000   0.0000000
 AtZNuc=   6.0000000   8.0000000   8.0000000
 Leave Link  101 at Fri Sep  6 10:33:27 2024, MaxMem=  1073741824 cpu:               1.2 elap:               0.1
 (Enter /Users/asuyarger/Applications/G16/g16/l103.exe)

 GradGradGradGradGradGradGradGradGradGradGradGradGradGradGradGradGradGrad
 Berny optimization.
 Initialization pass.
                           ----------------------------
                           !    Initial Parameters    !
                           ! (Angstroms and Degrees)  !
 --------------------------                            --------------------------
 ! Name  Definition              Value          Derivative Info.                !
 --------------------------------------------------------------------------------
 ! R1    R(1,2)                  1.2584         estimate D2E/DX2                !
 ! R2    R(1,3)                  1.2584         estimate D2E/DX2                !
 ! A1    L(2,1,3,-2,-1)        180.0            estimate D2E/DX2                !
 ! A2    L(2,1,3,-3,-2)        180.0            estimate D2E/DX2                !
 --------------------------------------------------------------------------------
 Trust Radius=3.00D-01 FncErr=1.00D-07 GrdErr=1.00D-07 EigMax=2.50D+02 EigMin=1.00D-04
 Number of steps in this run=     20 maximum allowed number of steps=    100.
 GradGradGradGradGradGradGradGradGradGradGradGradGradGradGradGradGradGrad

 Leave Link  103 at Fri Sep  6 10:33:27 2024, MaxMem=  1073741824 cpu:               0.1 elap:               0.0
 (Enter /Users/asuyarger/Applications/G16/g16/l202.exe)
                          Input orientation:                          
 ---------------------------------------------------------------------
 Center     Atomic      Atomic             Coordinates (Angstroms)
 Number     Number       Type             X           Y           Z
 ---------------------------------------------------------------------
      1          6           0       -0.786618    0.117541    0.000000
      2          8           0        0.471782    0.117541    0.000000
      3          8           0       -2.045018    0.117541    0.000000
 ---------------------------------------------------------------------
                    Distance matrix (angstroms):
                    1          2          3
     1  C    0.000000
     2  O    1.258400   0.000000
     3  O    1.258400   2.516800   0.000000
 Stoichiometry    CO2
 Framework group  D*H[O(C),C*(O.O)]
 Deg. of freedom     1
 Full point group                 D*H     NOp   8
 Largest Abelian subgroup         D2H     NOp   8
 Largest concise Abelian subgroup C2      NOp   2
                         Standard orientation:                         
 ---------------------------------------------------------------------
 Center     Atomic      Atomic             Coordinates (Angstroms)
 Number     Number       Type             X           Y           Z
 ---------------------------------------------------------------------
      1          6           0        0.000000    0.000000    0.000000
      2          8           0        0.000000    0.000000    1.258400
      3          8           0        0.000000    0.000000   -1.258400
 ---------------------------------------------------------------------
 Rotational constants (GHZ):           0.0000000           9.9762623           9.9762623
 Leave Link  202 at Fri Sep  6 10:33:27 2024, MaxMem=  1073741824 cpu:               0.0 elap:               0.0
 (Enter /Users/asuyarger/Applications/G16/g16/l301.exe)
 Standard basis: Aug-CC-pVTZ (5D, 7F)
 Ernie: Thresh=  0.10000D-02 Tol=  0.10000D-05 Strict=F.
 Ernie:  9 primitive shells out of 90 were deleted.
 There are    38 symmetry adapted cartesian basis functions of AG  symmetry.
 There are     8 symmetry adapted cartesian basis functions of B1G symmetry.
 There are    16 symmetry adapted cartesian basis functions of B2G symmetry.
 There are    16 symmetry adapted cartesian basis functions of B3G symmetry.
 There are     7 symmetry adapted cartesian basis functions of AU  symmetry.
 There are    34 symmetry adapted cartesian basis functions of B1U symmetry.
 There are    23 symmetry adapted cartesian basis functions of B2U symmetry.
 There are    23 symmetry adapted cartesian basis functions of B3U symmetry.
 There are    30 symmetry adapted basis functions of AG  symmetry.
 There are     8 symmetry adapted basis functions of B1G symmetry.
 There are    14 symmetry adapted basis functions of B2G symmetry.
 There are    14 symmetry adapted basis functions of B3G symmetry.
 There are     7 symmetry adapted basis functions of AU  symmetry.
 There are    27 symmetry adapted basis functions of B1U symmetry.
 There are    19 symmetry adapted basis functions of B2U symmetry.
 There are    19 symmetry adapted basis functions of B3U symmetry.
   138 basis functions,   216 primitive gaussians,   165 cartesian basis functions
    11 alpha electrons       11 beta electrons
       nuclear repulsion energy        53.8260354401 Hartrees.
 IExCor=    0 DFT=F Ex=HF Corr=None ExCW=0 ScaHFX=  1.000000
 ScaDFX=  1.000000  1.000000  1.000000  1.000000 ScalE2=  1.000000  1.000000
 IRadAn=      5 IRanWt=     -1 IRanGd=            0 ICorTp=0 IEmpDi=  4
 NAtoms=    3 NActive=    3 NUniq=    2 SFac= 2.25D+00 NAtFMM=   60 NAOKFM=F Big=F
 Integral buffers will be    131072 words long.
 Raffenetti 2 integral format.
 Two-electron integral symmetry is turned on.
 Leave Link  301 at Fri Sep  6 10:33:27 2024, MaxMem=  1073741824 cpu:               0.1 elap:               0.0
 (Enter /Users/asuyarger/Applications/G16/g16/l302.exe)
 NPDir=0 NMtPBC=     1 NCelOv=     1 NCel=       1 NClECP=     1 NCelD=      1
         NCelK=      1 NCelE2=     1 NClLst=     1 CellRange=     0.0.
 One-electron integrals computed using PRISM.
 One-electron integral symmetry used in STVInt
 NBasis=   138 RedAO= T EigKep=  4.29D-04  NBF=    30     8    14    14     7    27    19    19
 NBsUse=   138 1.00D-06 EigRej= -1.00D+00 NBFU=    30     8    14    14     7    27    19    19
 Leave Link  302 at Fri Sep  6 10:33:27 2024, MaxMem=  1073741824 cpu:               0.7 elap:               0.1
 (Enter /Users/asuyarger/Applications/G16/g16/l303.exe)
 DipDrv:  MaxL=1.
 Leave Link  303 at Fri Sep  6 10:33:27 2024, MaxMem=  1073741824 cpu:               0.1 elap:               0.0
 (Enter /Users/asuyarger/Applications/G16/g16/l401.exe)
 ExpMin= 3.57D-02 ExpMax= 1.53D+04 ExpMxC= 5.22D+02 IAcc=3 IRadAn=         5 AccDes= 0.00D+00
 Harris functional with IExCor=  205 and IRadAn=       5 diagonalized for initial guess.
 HarFok:  IExCor=  205 AccDes= 0.00D+00 IRadAn=         5 IDoV= 1 UseB2=F ITyADJ=14
 ICtDFT=  3500011 ScaDFX=  1.000000  1.000000  1.000000  1.000000
 FoFCou: FMM=F IPFlag=           0 FMFlag=      100000 FMFlg1=           0
         NFxFlg=           0 DoJE=T BraDBF=F KetDBF=T FulRan=T
         wScrn=  0.000000 ICntrl=       500 IOpCl=  0 I1Cent=   200000004 NGrid=           0
         NMat0=    1 NMatS0=      1 NMatT0=    0 NMatD0=    1 NMtDS0=    0 NMtDT0=    0
 Petite list used in FoFCou.
 Harris En= -187.701497070399    
 JPrj=0 DoOrth=F DoCkMO=F.
 Initial guess orbital symmetries:
 Alpha Orbitals:
       Occupied  (SGU) (SGG) (SGG) (SGG) (SGU) (SGG) (SGU) (PIU)
                 (PIU) (PIG) (PIG)
       Virtual   (PIU) (PIU) (SGG) (SGU) (PIU) (PIU) (SGG) (SGG)
                 (PIG) (PIG) (SGU) (PIU) (PIU) (DLTG) (DLTG) (SGU)
                 (SGG) (PIU) (PIU) (PIG) (PIG) (SGG) (SGU) (DLTU)
                 (DLTU) (SGG) (SGU) (PIG) (PIG) (DLTG) (DLTG) (PIU)
                 (PIU) (SGG) (SGU) (DLTG) (DLTG) (SGU) (PHIU) (PHIU)
                 (PIU) (PIU) (PIG) (PIG) (DLTU) (DLTU) (SGU) (PIG)
                 (PIG) (SGG) (PIU) (PIU) (SGG) (PHIG) (PHIG) (DLTU)
                 (DLTU) (DLTG) (DLTG) (PIU) (PIU) (PHIU) (PHIU)
                 (SGG) (SGG) (PIG) (PIG) (SGU) (DLTG) (DLTG) (SGU)
                 (PIU) (PIU) (DLTU) (DLTU) (SGU) (PIG) (PIG) (PIU)
                 (PIU) (DLTG) (DLTG) (SGG) (PHIU) (PHIU) (SGU)
                 (PIG) (PIG) (DLTU) (DLTU) (PIU) (PIU) (SGG) (PIG)
                 (PIG) (SGU) (SGG) (PIU) (PIU) (SGU) (PHIG) (PHIG)
                 (PHIU) (PHIU) (DLTG) (DLTG) (DLTU) (DLTU) (PIG)
                 (PIG) (DLTG) (DLTG) (DLTU) (DLTU) (SGU) (PIU)
                 (PIU) (SGG) (SGG) (PIG) (PIG) (SGU) (PIU) (PIU)
                 (SGG) (SGG) (SGU)
 Beta  Orbitals:
       Occupied  (SGU) (SGG) (SGG) (SGG) (SGU) (SGG) (SGU) (PIU)
                 (PIU) (PIG) (PIG)
       Virtual   (PIU) (PIU) (SGG) (SGU) (PIU) (PIU) (SGG) (SGG)
                 (PIG) (PIG) (SGU) (PIU) (PIU) (DLTG) (DLTG) (SGU)
                 (SGG) (PIU) (PIU) (PIG) (PIG) (SGG) (SGU) (DLTU)
                 (DLTU) (SGG) (SGU) (PIG) (PIG) (DLTG) (DLTG) (PIU)
                 (PIU) (SGG) (SGU) (DLTG) (DLTG) (SGU) (PHIU) (PHIU)
                 (PIU) (PIU) (PIG) (PIG) (DLTU) (DLTU) (SGU) (PIG)
                 (PIG) (SGG) (PIU) (PIU) (SGG) (PHIG) (PHIG) (DLTU)
                 (DLTU) (DLTG) (DLTG) (PIU) (PIU) (PHIU) (PHIU)
                 (SGG) (SGG) (PIG) (PIG) (SGU) (DLTG) (DLTG) (SGU)
                 (PIU) (PIU) (DLTU) (DLTU) (SGU) (PIG) (PIG) (PIU)
                 (PIU) (DLTG) (DLTG) (SGG) (PHIU) (PHIU) (SGU)
                 (PIG) (PIG) (DLTU) (DLTU) (PIU) (PIU) (SGG) (PIG)
                 (PIG) (SGU) (SGG) (PIU) (PIU) (SGU) (PHIG) (PHIG)
                 (PHIU) (PHIU) (DLTG) (DLTG) (DLTU) (DLTU) (PIG)
                 (PIG) (DLTG) (DLTG) (DLTU) (DLTU) (SGU) (PIU)
                 (PIU) (SGG) (SGG) (PIG) (PIG) (SGU) (PIU) (PIU)
                 (SGG) (SGG) (SGU)
 The electronic state of the initial guess is 1-SGG.
 Initial guess <Sx>= 0.0000 <Sy>= 0.0000 <Sz>= 0.0000 <S**2>=-0.0000 S=-0.0000
 Leave Link  401 at Fri Sep  6 10:33:27 2024, MaxMem=  1073741824 cpu:               1.0 elap:               0.2
 (Enter /Users/asuyarger/Applications/G16/g16/l502.exe)
 Keep R1 and R2 ints in memory in symmetry-blocked form, NReq=51901023.
 FoFCou: FMM=F IPFlag=           0 FMFlag=           0 FMFlg1=           0
         NFxFlg=           0 DoJE=F BraDBF=F KetDBF=F FulRan=T
         wScrn=  0.000000 ICntrl=       600 IOpCl=  0 I1Cent=           0 NGrid=           0
         NMat0=    1 NMatS0=   9591 NMatT0=    0 NMatD0=    1 NMtDS0=    0 NMtDT0=    0
 Petite list used in FoFCou.
 UHF open shell SCF:
 Using DIIS extrapolation, IDIIS=  1040.
 NGot=  1073741824 LenX=  1061912468 LenY=  1061884802
 Requested convergence on RMS density matrix=1.00D-08 within 128 cycles.
 Requested convergence on MAX density matrix=1.00D-06.
 Requested convergence on             energy=1.00D-06.
 No special actions if energy rises.

 Cycle   1  Pass 1  IDiag  1:
 E= -187.561866945351    
 DIIS: error= 5.39D-02 at cycle   1 NSaved=   1.
 NSaved= 1 IEnMin= 1 EnMin= -187.561866945351     IErMin= 1 ErrMin= 5.39D-02
 ErrMax= 5.39D-02  0.00D+00 EMaxC= 1.00D-01 BMatC= 1.25D+00 BMatP= 1.25D+00
 IDIUse=3 WtCom= 4.61D-01 WtEn= 5.39D-01
 Coeff-Com:  0.100D+01
 Coeff-En:   0.100D+01
 Coeff:      0.100D+01
 Gap=     0.572 Goal=   None    Shift=    0.000
 Gap=     0.572 Goal=   None    Shift=    0.000
 GapD=    0.572 DampG=2.000 DampE=0.500 DampFc=1.0000 IDamp=-1.
 RMSDP=1.56D-03 MaxDP=5.31D-02              OVMax= 7.98D-02

 Cycle   2  Pass 1  IDiag  1:
 E= -187.614358604016     Delta-E=       -0.052491658664 Rises=F Damp=F
 DIIS: error= 3.31D-02 at cycle   2 NSaved=   2.
 NSaved= 2 IEnMin= 2 EnMin= -187.614358604016     IErMin= 2 ErrMin= 3.31D-02
 ErrMax= 3.31D-02  0.00D+00 EMaxC= 1.00D-01 BMatC= 2.46D-01 BMatP= 1.25D+00
 IDIUse=3 WtCom= 6.69D-01 WtEn= 3.31D-01
 Coeff-Com:  0.239D+00 0.761D+00
 Coeff-En:   0.174D+00 0.826D+00
 Coeff:      0.218D+00 0.782D+00
 Gap=     0.606 Goal=   None    Shift=    0.000
 Gap=     0.606 Goal=   None    Shift=    0.000
 RMSDP=9.70D-04 MaxDP=2.63D-02 DE=-5.25D-02 OVMax= 8.20D-02

 Cycle   3  Pass 1  IDiag  1:
 E= -187.646794090061     Delta-E=       -0.032435486045 Rises=F Damp=F
 DIIS: error= 1.91D-02 at cycle   3 NSaved=   3.
 NSaved= 3 IEnMin= 3 EnMin= -187.646794090061     IErMin= 3 ErrMin= 1.91D-02
 ErrMax= 1.91D-02  0.00D+00 EMaxC= 1.00D-01 BMatC= 5.83D-02 BMatP= 2.46D-01
 IDIUse=3 WtCom= 8.09D-01 WtEn= 1.91D-01
 Coeff-Com: -0.383D-01 0.309D+00 0.730D+00
 Coeff-En:   0.000D+00 0.975D-01 0.902D+00
 Coeff:     -0.310D-01 0.268D+00 0.763D+00
 Gap=     0.582 Goal=   None    Shift=    0.000
 Gap=     0.582 Goal=   None    Shift=    0.000
 RMSDP=3.45D-04 MaxDP=1.44D-02 DE=-3.24D-02 OVMax= 2.25D-02

 Cycle   4  Pass 1  IDiag  1:
 E= -187.655936210432     Delta-E=       -0.009142120371 Rises=F Damp=F
 DIIS: error= 2.12D-03 at cycle   4 NSaved=   4.
 NSaved= 4 IEnMin= 4 EnMin= -187.655936210432     IErMin= 4 ErrMin= 2.12D-03
 ErrMax= 2.12D-03  0.00D+00 EMaxC= 1.00D-01 BMatC= 5.76D-04 BMatP= 5.83D-02
 IDIUse=3 WtCom= 9.79D-01 WtEn= 2.12D-02
 Coeff-Com:  0.678D-02-0.947D-01-0.107D+00 0.120D+01
 Coeff-En:   0.000D+00 0.000D+00 0.000D+00 0.100D+01
 Coeff:      0.664D-02-0.927D-01-0.105D+00 0.119D+01
 Gap=     0.583 Goal=   None    Shift=    0.000
 Gap=     0.583 Goal=   None    Shift=    0.000
 RMSDP=5.27D-05 MaxDP=1.50D-03 DE=-9.14D-03 OVMax= 5.89D-03

 Cycle   5  Pass 1  IDiag  1:
 E= -187.656115862856     Delta-E=       -0.000179652424 Rises=F Damp=F
 DIIS: error= 5.91D-04 at cycle   5 NSaved=   5.
 NSaved= 5 IEnMin= 5 EnMin= -187.656115862856     IErMin= 5 ErrMin= 5.91D-04
 ErrMax= 5.91D-04  0.00D+00 EMaxC= 1.00D-01 BMatC= 3.00D-05 BMatP= 5.76D-04
 IDIUse=3 WtCom= 9.94D-01 WtEn= 5.91D-03
 Coeff-Com:  0.327D-02-0.269D-01-0.733D-01 0.366D-01 0.106D+01
 Coeff-En:   0.000D+00 0.000D+00 0.000D+00 0.000D+00 0.100D+01
 Coeff:      0.325D-02-0.268D-01-0.729D-01 0.364D-01 0.106D+01
 Gap=     0.584 Goal=   None    Shift=    0.000
 Gap=     0.584 Goal=   None    Shift=    0.000
 RMSDP=1.84D-05 MaxDP=8.82D-04 DE=-1.80D-04 OVMax= 1.39D-03

 Cycle   6  Pass 1  IDiag  1:
 E= -187.656127454301     Delta-E=       -0.000011591445 Rises=F Damp=F
 DIIS: error= 1.12D-04 at cycle   6 NSaved=   6.
 NSaved= 6 IEnMin= 6 EnMin= -187.656127454301     IErMin= 6 ErrMin= 1.12D-04
 ErrMax= 1.12D-04  0.00D+00 EMaxC= 1.00D-01 BMatC= 1.51D-06 BMatP= 3.00D-05
 IDIUse=3 WtCom= 9.99D-01 WtEn= 1.12D-03
 Coeff-Com: -0.109D-02 0.130D-01 0.218D-01-0.108D+00-0.220D+00 0.129D+01
 Coeff-En:   0.000D+00 0.000D+00 0.000D+00 0.000D+00 0.000D+00 0.100D+01
 Coeff:     -0.108D-02 0.130D-01 0.218D-01-0.108D+00-0.219D+00 0.129D+01
 Gap=     0.584 Goal=   None    Shift=    0.000
 Gap=     0.584 Goal=   None    Shift=    0.000
 RMSDP=5.83D-06 MaxDP=2.22D-04 DE=-1.16D-05 OVMax= 4.98D-04

 Cycle   7  Pass 1  IDiag  1:
 E= -187.656128445240     Delta-E=       -0.000000990939 Rises=F Damp=F
 DIIS: error= 1.95D-05 at cycle   7 NSaved=   7.
 NSaved= 7 IEnMin= 7 EnMin= -187.656128445240     IErMin= 7 ErrMin= 1.95D-05
 ErrMax= 1.95D-05  0.00D+00 EMaxC= 1.00D-01 BMatC= 5.21D-08 BMatP= 1.51D-06
 IDIUse=1 WtCom= 1.00D+00 WtEn= 0.00D+00
 Coeff-Com:  0.131D-03-0.197D-02-0.287D-02 0.216D-01 0.401D-01-0.389D+00
 Coeff-Com:  0.133D+01
 Coeff:      0.131D-03-0.197D-02-0.287D-02 0.216D-01 0.401D-01-0.389D+00
 Coeff:      0.133D+01
 Gap=     0.584 Goal=   None    Shift=    0.000
 Gap=     0.584 Goal=   None    Shift=    0.000
 RMSDP=1.05D-06 MaxDP=3.30D-05 DE=-9.91D-07 OVMax= 9.25D-05

 Cycle   8  Pass 1  IDiag  1:
 E= -187.656128470942     Delta-E=       -0.000000025702 Rises=F Damp=F
 DIIS: error= 2.18D-06 at cycle   8 NSaved=   8.
 NSaved= 8 IEnMin= 8 EnMin= -187.656128470942     IErMin= 8 ErrMin= 2.18D-06
 ErrMax= 2.18D-06  0.00D+00 EMaxC= 1.00D-01 BMatC= 6.23D-10 BMatP= 5.21D-08
 IDIUse=1 WtCom= 1.00D+00 WtEn= 0.00D+00
 Coeff-Com: -0.589D-05 0.104D-03 0.138D-03-0.195D-02-0.832D-03 0.295D-01
 Coeff-Com: -0.162D+00 0.114D+01
 Coeff:     -0.589D-05 0.104D-03 0.138D-03-0.195D-02-0.832D-03 0.295D-01
 Coeff:     -0.162D+00 0.114D+01
 Gap=     0.584 Goal=   None    Shift=    0.000
 Gap=     0.584 Goal=   None    Shift=    0.000
 RMSDP=9.14D-08 MaxDP=1.50D-06 DE=-2.57D-08 OVMax= 4.89D-06

 Cycle   9  Pass 1  IDiag  1:
 E= -187.656128471156     Delta-E=       -0.000000000214 Rises=F Damp=F
 DIIS: error= 2.40D-07 at cycle   9 NSaved=   9.
 NSaved= 9 IEnMin= 9 EnMin= -187.656128471156     IErMin= 9 ErrMin= 2.40D-07
 ErrMax= 2.40D-07  0.00D+00 EMaxC= 1.00D-01 BMatC= 9.62D-12 BMatP= 6.23D-10
 IDIUse=1 WtCom= 1.00D+00 WtEn= 0.00D+00
 Coeff-Com: -0.102D-05 0.158D-04 0.174D-04-0.151D-03-0.462D-03 0.456D-02
 Coeff-Com: -0.180D-01-0.766D-01 0.109D+01
 Coeff:     -0.102D-05 0.158D-04 0.174D-04-0.151D-03-0.462D-03 0.456D-02
 Coeff:     -0.180D-01-0.766D-01 0.109D+01
 Gap=     0.584 Goal=   None    Shift=    0.000
 Gap=     0.584 Goal=   None    Shift=    0.000
 RMSDP=1.33D-08 MaxDP=2.68D-07 DE=-2.14D-10 OVMax= 8.40D-07

 Cycle  10  Pass 1  IDiag  1:
 E= -187.656128471160     Delta-E=       -0.000000000004 Rises=F Damp=F
 DIIS: error= 3.65D-08 at cycle  10 NSaved=  10.
 NSaved=10 IEnMin=10 EnMin= -187.656128471160     IErMin=10 ErrMin= 3.65D-08
 ErrMax= 3.65D-08  0.00D+00 EMaxC= 1.00D-01 BMatC= 1.52D-13 BMatP= 9.62D-12
 IDIUse=1 WtCom= 1.00D+00 WtEn= 0.00D+00
 Coeff-Com:  0.153D-06-0.242D-05-0.233D-05 0.364D-04 0.745D-04-0.109D-02
 Coeff-Com:  0.532D-02 0.318D-02-0.241D+00 0.123D+01
 Coeff:      0.153D-06-0.242D-05-0.233D-05 0.364D-04 0.745D-04-0.109D-02
 Coeff:      0.532D-02 0.318D-02-0.241D+00 0.123D+01
 Gap=     0.584 Goal=   None    Shift=    0.000
 Gap=     0.584 Goal=   None    Shift=    0.000
 RMSDP=1.46D-09 MaxDP=2.00D-08 DE=-4.29D-12 OVMax= 9.98D-08

 SCF Done:  E(UHF) =  -187.656128471     A.U. after   10 cycles
            NFock= 10  Conv=0.15D-08     -V/T= 2.0059
 <Sx>= 0.0000 <Sy>= 0.0000 <Sz>= 0.0000 <S**2>=-0.0000 S=-0.0000
 <L.S>= 0.000000000000E+00
 KE= 1.865564898703D+02 PE=-5.500381016292D+02 EE= 1.219994478477D+02
 Annihilation of the first spin contaminant:
 S**2 before annihilation    -0.0000,   after     0.0000
 Leave Link  502 at Fri Sep  6 10:33:28 2024, MaxMem=  1073741824 cpu:               5.0 elap:               0.7
 (Enter /Users/asuyarger/Applications/G16/g16/l601.exe)
 Copying SCF densities to generalized density rwf, IOpCl= 1 IROHF=0.

 **********************************************************************

            Population analysis using the SCF density.

 **********************************************************************

 Orbital symmetries:
 Alpha Orbitals:
       Occupied  (SGU) (SGG) (SGG) (SGG) (SGU) (SGG) (SGU) (PIU)
                 (PIU) (PIG) (PIG)
       Virtual   (SGG) (PIU) (PIU) (SGU) (PIU) (PIU) (SGG) (PIG)
                 (PIG) (SGG) (SGU) (PIU) (PIU) (DLTG) (DLTG) (SGU)
                 (SGG) (PIU) (PIU) (PIG) (PIG) (SGG) (SGU) (DLTU)
                 (DLTU) (SGG) (PIG) (PIG) (DLTG) (DLTG) (SGU) (PIU)
                 (PIU) (SGG) (SGU) (PHIU) (PHIU) (DLTG) (DLTG)
                 (PIU) (PIU) (SGU) (PIG) (PIG) (DLTU) (DLTU) (SGU)
                 (PIG) (PIG) (SGG) (PIU) (PIU) (SGG) (PHIG) (PHIG)
                 (DLTU) (DLTU) (PHIU) (PHIU) (DLTG) (DLTG) (SGG)
                 (PIU) (PIU) (SGG) (PIG) (PIG) (SGU) (DLTG) (DLTG)
                 (SGU) (DLTU) (DLTU) (PIU) (PIU) (SGU) (PIG) (PIG)
                 (PIU) (PIU) (DLTG) (DLTG) (PHIU) (PHIU) (SGG)
                 (SGU) (DLTU) (DLTU) (PIG) (PIG) (PIU) (PIU) (SGG)
                 (PIG) (PIG) (SGU) (SGG) (PIU) (PIU) (SGU) (PHIG)
                 (PHIG) (PHIU) (PHIU) (DLTG) (DLTG) (DLTU) (DLTU)
                 (PIG) (PIG) (DLTG) (DLTG) (SGU) (DLTU) (DLTU)
                 (PIU) (PIU) (SGG) (SGG) (PIG) (PIG) (PIU) (PIU)
                 (SGU) (SGG) (SGG) (SGU)
 Beta  Orbitals:
       Occupied  (SGU) (SGG) (SGG) (SGG) (SGU) (SGG) (SGU) (PIU)
                 (PIU) (PIG) (PIG)
       Virtual   (SGG) (PIU) (PIU) (SGU) (PIU) (PIU) (SGG) (PIG)
                 (PIG) (SGG) (SGU) (PIU) (PIU) (DLTG) (DLTG) (SGU)
                 (SGG) (PIU) (PIU) (PIG) (PIG) (SGG) (SGU) (DLTU)
                 (DLTU) (SGG) (PIG) (PIG) (DLTG) (DLTG) (SGU) (PIU)
                 (PIU) (SGG) (SGU) (PHIU) (PHIU) (DLTG) (DLTG)
                 (PIU) (PIU) (SGU) (PIG) (PIG) (DLTU) (DLTU) (SGU)
                 (PIG) (PIG) (SGG) (PIU) (PIU) (SGG) (PHIG) (PHIG)
                 (DLTU) (DLTU) (PHIU) (PHIU) (DLTG) (DLTG) (SGG)
                 (PIU) (PIU) (SGG) (PIG) (PIG) (SGU) (DLTG) (DLTG)
                 (SGU) (DLTU) (DLTU) (PIU) (PIU) (SGU) (PIG) (PIG)
                 (PIU) (PIU) (DLTG) (DLTG) (PHIU) (PHIU) (SGG)
                 (SGU) (DLTU) (DLTU) (PIG) (PIG) (PIU) (PIU) (SGG)
                 (PIG) (PIG) (SGU) (SGG) (PIU) (PIU) (SGU) (PHIG)
                 (PHIG) (PHIU) (PHIU) (DLTG) (DLTG) (DLTU) (DLTU)
                 (PIG) (PIG) (DLTG) (DLTG) (SGU) (DLTU) (DLTU)
                 (PIU) (PIU) (SGG) (SGG) (PIG) (PIG) (PIU) (PIU)
                 (SGU) (SGG) (SGG) (SGU)
 The electronic state is 1-SGG.
 Alpha  occ. eigenvalues --  -20.67520 -20.67517 -11.51275  -1.47960  -1.42941
 Alpha  occ. eigenvalues --   -0.81099  -0.72305  -0.67761  -0.67761  -0.53998
 Alpha  occ. eigenvalues --   -0.53998
 Alpha virt. eigenvalues --    0.04406   0.07394   0.07394   0.07923   0.13710
 Alpha virt. eigenvalues --    0.13710   0.15988   0.16512   0.16512   0.18962
 Alpha virt. eigenvalues --    0.22183   0.24617   0.24617   0.27828   0.27828
 Alpha virt. eigenvalues --    0.29902   0.37765   0.44513   0.44513   0.48536
 Alpha virt. eigenvalues --    0.48536   0.49502   0.59847   0.65552   0.65552
 Alpha virt. eigenvalues --    0.68540   0.76518   0.76518   0.78405   0.78405
 Alpha virt. eigenvalues --    0.83166   0.89051   0.89051   0.92352   1.03511
 Alpha virt. eigenvalues --    1.03780   1.03780   1.05283   1.05283   1.08211
 Alpha virt. eigenvalues --    1.08211   1.11909   1.22248   1.22248   1.33790
 Alpha virt. eigenvalues --    1.33790   1.36718   1.44903   1.44903   1.49435
 Alpha virt. eigenvalues --    1.57386   1.57386   1.85347   2.02858   2.02858
 Alpha virt. eigenvalues --    2.17006   2.17006   2.23423   2.23423   2.23941
 Alpha virt. eigenvalues --    2.23941   2.28543   2.30589   2.30589   2.34286
 Alpha virt. eigenvalues --    2.40290   2.40290   2.43310   2.53157   2.53157
 Alpha virt. eigenvalues --    2.68867   2.77604   2.77604   2.78486   2.78486
 Alpha virt. eigenvalues --    2.94252   2.97813   2.97813   3.05847   3.05847
 Alpha virt. eigenvalues --    3.29892   3.29892   3.33631   3.33631   3.43777
 Alpha virt. eigenvalues --    3.65571   3.80234   3.80234   3.85582   3.85582
 Alpha virt. eigenvalues --    4.08346   4.08346   4.41792   4.65810   4.65810
 Alpha virt. eigenvalues --    4.87894   5.29891   5.42040   5.42040   6.33850
 Alpha virt. eigenvalues --    6.43687   6.43687   6.52717   6.52717   6.63575
 Alpha virt. eigenvalues --    6.63575   6.83657   6.83657   6.89702   6.89702
 Alpha virt. eigenvalues --    7.04631   7.04631   7.12860   7.13595   7.13595
 Alpha virt. eigenvalues --    7.21334   7.21334   7.22090   7.32527   7.66873
 Alpha virt. eigenvalues --    7.66873   7.80489   7.80489   7.80975  11.95268
 Alpha virt. eigenvalues --   14.21053  17.21176
  Beta  occ. eigenvalues --  -20.67520 -20.67517 -11.51275  -1.47960  -1.42941
  Beta  occ. eigenvalues --   -0.81099  -0.72305  -0.67761  -0.67761  -0.53998
  Beta  occ. eigenvalues --   -0.53998
  Beta virt. eigenvalues --    0.04406   0.07394   0.07394   0.07923   0.13710
  Beta virt. eigenvalues --    0.13710   0.15988   0.16512   0.16512   0.18962
  Beta virt. eigenvalues --    0.22183   0.24617   0.24617   0.27828   0.27828
  Beta virt. eigenvalues --    0.29902   0.37765   0.44513   0.44513   0.48536
  Beta virt. eigenvalues --    0.48536   0.49502   0.59847   0.65552   0.65552
  Beta virt. eigenvalues --    0.68540   0.76518   0.76518   0.78405   0.78405
  Beta virt. eigenvalues --    0.83166   0.89051   0.89051   0.92352   1.03511
  Beta virt. eigenvalues --    1.03780   1.03780   1.05283   1.05283   1.08211
  Beta virt. eigenvalues --    1.08211   1.11909   1.22248   1.22248   1.33790
  Beta virt. eigenvalues --    1.33790   1.36718   1.44903   1.44903   1.49435
  Beta virt. eigenvalues --    1.57386   1.57386   1.85347   2.02858   2.02858
  Beta virt. eigenvalues --    2.17006   2.17006   2.23423   2.23423   2.23941
  Beta virt. eigenvalues --    2.23941   2.28543   2.30589   2.30589   2.34286
  Beta virt. eigenvalues --    2.40290   2.40290   2.43310   2.53157   2.53157
  Beta virt. eigenvalues --    2.68867   2.77604   2.77604   2.78486   2.78486
  Beta virt. eigenvalues --    2.94252   2.97813   2.97813   3.05847   3.05847
  Beta virt. eigenvalues --    3.29892   3.29892   3.33631   3.33631   3.43777
  Beta virt. eigenvalues --    3.65571   3.80234   3.80234   3.85582   3.85582
  Beta virt. eigenvalues --    4.08346   4.08346   4.41792   4.65810   4.65810
  Beta virt. eigenvalues --    4.87894   5.29891   5.42040   5.42040   6.33850
  Beta virt. eigenvalues --    6.43687   6.43687   6.52717   6.52717   6.63575
  Beta virt. eigenvalues --    6.63575   6.83657   6.83657   6.89702   6.89702
  Beta virt. eigenvalues --    7.04631   7.04631   7.12860   7.13595   7.13595
  Beta virt. eigenvalues --    7.21334   7.21334   7.22090   7.32527   7.66873
  Beta virt. eigenvalues --    7.66873   7.80489   7.80489   7.80975  11.95268
  Beta virt. eigenvalues --   14.21053  17.21176
     Alpha Molecular Orbital Coefficients:
                           1         2         3         4         5
                       (SGU)--O  (SGG)--O  (SGG)--O  (SGG)--O  (SGU)--O
     Eigenvalues --   -20.67520 -20.67517 -11.51275  -1.47960  -1.42941
   1 1   C  1S          0.00000   0.00019   0.97942  -0.12572   0.00000
   2        2S          0.00000   0.00188  -0.00692   0.29688   0.00000
   3        3S          0.00000  -0.00045   0.04111   0.07624   0.00000
   4        4S          0.00000   0.00128   0.00136   0.07839   0.00000
   5        5S          0.00000   0.00032   0.00044   0.00181   0.00000
   6        6PX         0.00000   0.00000   0.00000   0.00000   0.00000
   7        6PY         0.00000   0.00000   0.00000   0.00000   0.00000
   8        6PZ         0.00007   0.00000   0.00000   0.00000   0.15377
   9        7PX         0.00000   0.00000   0.00000   0.00000   0.00000
  10        7PY         0.00000   0.00000   0.00000   0.00000   0.00000
  11        7PZ         0.00534   0.00000   0.00000   0.00000   0.13073
  12        8PX         0.00000   0.00000   0.00000   0.00000   0.00000
  13        8PY         0.00000   0.00000   0.00000   0.00000   0.00000
  14        8PZ         0.00248   0.00000   0.00000   0.00000  -0.01105
  15        9PX         0.00000   0.00000   0.00000   0.00000   0.00000
  16        9PY         0.00000   0.00000   0.00000   0.00000   0.00000
  17        9PZ         0.00030   0.00000   0.00000   0.00000  -0.00265
  18       10D 0        0.00000   0.00073   0.00134   0.02695   0.00000
  19       10D+1        0.00000   0.00000   0.00000   0.00000   0.00000
  20       10D-1        0.00000   0.00000   0.00000   0.00000   0.00000
  21       10D+2        0.00000  -0.00000  -0.00000  -0.00000   0.00000
  22       10D-2        0.00000   0.00000   0.00000   0.00000   0.00000
  23       11D 0        0.00000   0.00210  -0.00165   0.02718   0.00000
  24       11D+1        0.00000   0.00000   0.00000   0.00000   0.00000
  25       11D-1        0.00000   0.00000   0.00000   0.00000   0.00000
  26       11D+2        0.00000   0.00000  -0.00000   0.00000   0.00000
  27       11D-2        0.00000   0.00000   0.00000   0.00000   0.00000
  28       12D 0        0.00000  -0.00011  -0.00034  -0.01546   0.00000
  29       12D+1        0.00000   0.00000   0.00000   0.00000   0.00000
  30       12D-1        0.00000   0.00000   0.00000   0.00000   0.00000
  31       12D+2        0.00000  -0.00000  -0.00000   0.00000   0.00000
  32       12D-2        0.00000   0.00000   0.00000   0.00000   0.00000
  33       13F 0        0.00061   0.00000   0.00000   0.00000   0.00472
  34       13F+1        0.00000   0.00000   0.00000   0.00000   0.00000
  35       13F-1        0.00000   0.00000   0.00000   0.00000   0.00000
  36       13F+2       -0.00000   0.00000   0.00000   0.00000   0.00000
  37       13F-2        0.00000   0.00000   0.00000   0.00000   0.00000
  38       13F+3        0.00000   0.00000   0.00000   0.00000   0.00000
  39       13F-3        0.00000   0.00000   0.00000   0.00000   0.00000
  40       14F 0        0.00121   0.00000   0.00000   0.00000   0.00229
  41       14F+1        0.00000   0.00000   0.00000   0.00000   0.00000
  42       14F-1        0.00000   0.00000   0.00000   0.00000   0.00000
  43       14F+2        0.00000   0.00000   0.00000   0.00000  -0.00000
  44       14F-2        0.00000   0.00000   0.00000   0.00000   0.00000
  45       14F+3        0.00000   0.00000   0.00000   0.00000   0.00000
  46       14F-3        0.00000   0.00000   0.00000   0.00000   0.00000
  47 2   O  1S          0.69065   0.69071  -0.00018  -0.12964  -0.14165
  48        2S         -0.00716  -0.00682   0.00087   0.31570   0.34102
  49        3S          0.03066   0.03064   0.00021   0.08602   0.09254
  50        4S         -0.00092   0.00103   0.00097   0.15508   0.21339
  51        5S         -0.00159  -0.00048  -0.00092  -0.01332   0.01705
  52        6PX         0.00000   0.00000   0.00000   0.00000   0.00000
  53        6PY         0.00000   0.00000   0.00000   0.00000   0.00000
  54        6PZ        -0.00160  -0.00157  -0.00032  -0.04831  -0.04405
  55        7PX         0.00000   0.00000   0.00000   0.00000   0.00000
  56        7PY         0.00000   0.00000   0.00000   0.00000   0.00000
  57        7PZ         0.00233   0.00184  -0.00051  -0.06553  -0.06505
  58        8PX         0.00000   0.00000   0.00000   0.00000   0.00000
  59        8PY         0.00000   0.00000   0.00000   0.00000   0.00000
  60        8PZ         0.00070  -0.00018   0.00045   0.00819  -0.02977
  61        9PX         0.00000   0.00000   0.00000   0.00000   0.00000
  62        9PY         0.00000   0.00000   0.00000   0.00000   0.00000
  63        9PZ         0.00020   0.00007   0.00038   0.01025  -0.00072
  64       10D 0        0.00007   0.00008   0.00008   0.00530   0.00474
  65       10D+1        0.00000   0.00000   0.00000   0.00000   0.00000
  66       10D-1        0.00000   0.00000   0.00000   0.00000   0.00000
  67       10D+2        0.00000   0.00000   0.00000   0.00000   0.00000
  68       10D-2        0.00000   0.00000   0.00000   0.00000   0.00000
  69       11D 0       -0.00089  -0.00062  -0.00051   0.01094   0.01874
  70       11D+1        0.00000   0.00000   0.00000   0.00000   0.00000
  71       11D-1        0.00000   0.00000   0.00000   0.00000   0.00000
  72       11D+2       -0.00000  -0.00000  -0.00000   0.00000  -0.00000
  73       11D-2        0.00000   0.00000   0.00000   0.00000   0.00000
  74       12D 0       -0.00005   0.00035  -0.00046  -0.01074   0.00217
  75       12D+1        0.00000   0.00000   0.00000   0.00000   0.00000
  76       12D-1        0.00000   0.00000   0.00000   0.00000   0.00000
  77       12D+2       -0.00000   0.00000  -0.00000  -0.00000   0.00000
  78       12D-2        0.00000   0.00000   0.00000   0.00000   0.00000
  79       13F 0        0.00006   0.00011  -0.00002  -0.00265  -0.00348
  80       13F+1        0.00000   0.00000   0.00000   0.00000   0.00000
  81       13F-1        0.00000   0.00000   0.00000   0.00000   0.00000
  82       13F+2       -0.00000  -0.00000   0.00000  -0.00000  -0.00000
  83       13F-2        0.00000   0.00000   0.00000   0.00000   0.00000
  84       13F+3        0.00000   0.00000   0.00000   0.00000   0.00000
  85       13F-3        0.00000   0.00000   0.00000   0.00000   0.00000
  86       14F 0        0.00020   0.00001   0.00058   0.00061  -0.00456
  87       14F+1        0.00000   0.00000   0.00000   0.00000   0.00000
  88       14F-1        0.00000   0.00000   0.00000   0.00000   0.00000
  89       14F+2        0.00000   0.00000   0.00000   0.00000  -0.00000
  90       14F-2        0.00000   0.00000   0.00000   0.00000   0.00000
  91       14F+3        0.00000   0.00000   0.00000   0.00000   0.00000
  92       14F-3        0.00000   0.00000   0.00000   0.00000   0.00000
  93 3   O  1S         -0.69065   0.69071  -0.00018  -0.12964   0.14165
  94        2S          0.00716  -0.00682   0.00087   0.31570  -0.34102
  95        3S         -0.03066   0.03064   0.00021   0.08602  -0.09254
  96        4S          0.00092   0.00103   0.00097   0.15508  -0.21339
  97        5S          0.00159  -0.00048  -0.00092  -0.01332  -0.01705
  98        6PX         0.00000   0.00000   0.00000   0.00000   0.00000
  99        6PY         0.00000   0.00000   0.00000   0.00000   0.00000
 100        6PZ        -0.00160   0.00157   0.00032   0.04831  -0.04405
 101        7PX         0.00000   0.00000   0.00000   0.00000   0.00000
 102        7PY         0.00000   0.00000   0.00000   0.00000   0.00000
 103        7PZ         0.00233  -0.00184   0.00051   0.06553  -0.06505
 104        8PX         0.00000   0.00000   0.00000   0.00000   0.00000
 105        8PY         0.00000   0.00000   0.00000   0.00000   0.00000
 106        8PZ         0.00070   0.00018  -0.00045  -0.00819  -0.02977
 107        9PX         0.00000   0.00000   0.00000   0.00000   0.00000
 108        9PY         0.00000   0.00000   0.00000   0.00000   0.00000
 109        9PZ         0.00020  -0.00007  -0.00038  -0.01025  -0.00072
 110       10D 0       -0.00007   0.00008   0.00008   0.00530  -0.00474
 111       10D+1        0.00000   0.00000   0.00000   0.00000   0.00000
 112       10D-1        0.00000   0.00000   0.00000   0.00000   0.00000
 113       10D+2       -0.00000   0.00000   0.00000   0.00000  -0.00000
 114       10D-2        0.00000   0.00000   0.00000   0.00000   0.00000
 115       11D 0        0.00089  -0.00062  -0.00051   0.01094  -0.01874
 116       11D+1        0.00000   0.00000   0.00000   0.00000   0.00000
 117       11D-1        0.00000   0.00000   0.00000   0.00000   0.00000
 118       11D+2        0.00000  -0.00000  -0.00000   0.00000   0.00000
 119       11D-2        0.00000   0.00000   0.00000   0.00000   0.00000
 120       12D 0        0.00005   0.00035  -0.00046  -0.01074  -0.00217
 121       12D+1        0.00000   0.00000   0.00000   0.00000   0.00000
 122       12D-1        0.00000   0.00000   0.00000   0.00000   0.00000
 123       12D+2        0.00000   0.00000  -0.00000  -0.00000  -0.00000
 124       12D-2        0.00000   0.00000   0.00000   0.00000   0.00000
 125       13F 0        0.00006  -0.00011   0.00002   0.00265  -0.00348
 126       13F+1        0.00000   0.00000   0.00000   0.00000   0.00000
 127       13F-1        0.00000   0.00000   0.00000   0.00000   0.00000
 128       13F+2       -0.00000   0.00000  -0.00000   0.00000  -0.00000
 129       13F-2        0.00000   0.00000   0.00000   0.00000   0.00000
 130       13F+3        0.00000   0.00000   0.00000   0.00000   0.00000
 131       13F-3        0.00000   0.00000   0.00000   0.00000   0.00000
 132       14F 0        0.00020  -0.00001  -0.00058  -0.00061  -0.00456
 133       14F+1        0.00000   0.00000   0.00000   0.00000   0.00000
 134       14F-1        0.00000   0.00000   0.00000   0.00000   0.00000
 135       14F+2        0.00000  -0.00000  -0.00000  -0.00000  -0.00000
 136       14F-2        0.00000   0.00000   0.00000   0.00000   0.00000
 137       14F+3        0.00000   0.00000   0.00000   0.00000   0.00000
 138       14F-3        0.00000   0.00000   0.00000   0.00000   0.00000
                           6         7         8         9        10
                       (SGG)--O  (SGU)--O  (PIU)--O  (PIU)--O  (PIG)--O
     Eigenvalues --    -0.81099  -0.72305  -0.67761  -0.67761  -0.53998
   1 1   C  1S         -0.13689   0.00000   0.00000   0.00000   0.00000
   2        2S          0.36334   0.00000   0.00000   0.00000   0.00000
   3        3S          0.09811   0.00000   0.00000   0.00000   0.00000
   4        4S          0.15847   0.00000   0.00000   0.00000   0.00000
   5        5S          0.01224   0.00000   0.00000   0.00000   0.00000
   6        6PX         0.00000   0.00000   0.00000   0.18074   0.00000
   7        6PY         0.00000   0.00000   0.18074   0.00000   0.00000
   8        6PZ         0.00000  -0.20875   0.00000   0.00000   0.00000
   9        7PX         0.00000   0.00000   0.00000   0.24804   0.00000
  10        7PY         0.00000   0.00000   0.24804   0.00000   0.00000
  11        7PZ         0.00000  -0.25309   0.00000   0.00000   0.00000
  12        8PX         0.00000   0.00000   0.00000   0.08552   0.00000
  13        8PY         0.00000   0.00000   0.08552   0.00000   0.00000
  14        8PZ         0.00000  -0.01103   0.00000   0.00000   0.00000
  15        9PX         0.00000   0.00000   0.00000   0.00466   0.00000
  16        9PY         0.00000   0.00000   0.00466   0.00000   0.00000
  17        9PZ         0.00000   0.00443   0.00000   0.00000   0.00000
  18       10D 0        0.01244   0.00000   0.00000   0.00000   0.00000
  19       10D+1        0.00000   0.00000   0.00000   0.00000   0.03353
  20       10D-1        0.00000   0.00000   0.00000   0.00000   0.00000
  21       10D+2       -0.00000   0.00000   0.00000   0.00000   0.00000
  22       10D-2        0.00000   0.00000   0.00000   0.00000   0.00000
  23       11D 0        0.01275   0.00000   0.00000   0.00000   0.00000
  24       11D+1        0.00000   0.00000   0.00000   0.00000   0.05845
  25       11D-1        0.00000   0.00000   0.00000   0.00000   0.00000
  26       11D+2        0.00000   0.00000   0.00000   0.00000   0.00000
  27       11D-2        0.00000   0.00000   0.00000   0.00000   0.00000
  28       12D 0        0.00500   0.00000   0.00000   0.00000   0.00000
  29       12D+1        0.00000   0.00000   0.00000   0.00000  -0.00143
  30       12D-1        0.00000   0.00000   0.00000   0.00000   0.00000
  31       12D+2       -0.00000   0.00000   0.00000   0.00000   0.00000
  32       12D-2        0.00000   0.00000   0.00000   0.00000   0.00000
  33       13F 0        0.00000  -0.00964   0.00000   0.00000   0.00000
  34       13F+1        0.00000   0.00000   0.00000   0.01645   0.00000
  35       13F-1        0.00000   0.00000   0.01645   0.00000   0.00000
  36       13F+2        0.00000   0.00000   0.00000   0.00000   0.00000
  37       13F-2        0.00000   0.00000   0.00000   0.00000   0.00000
  38       13F+3        0.00000   0.00000   0.00000  -0.00000   0.00000
  39       13F-3        0.00000   0.00000   0.00000   0.00000   0.00000
  40       14F 0        0.00000   0.00778   0.00000   0.00000   0.00000
  41       14F+1        0.00000   0.00000   0.00000   0.01427   0.00000
  42       14F-1        0.00000   0.00000   0.01427   0.00000   0.00000
  43       14F+2        0.00000   0.00000   0.00000   0.00000   0.00000
  44       14F-2        0.00000   0.00000   0.00000   0.00000   0.00000
  45       14F+3        0.00000   0.00000   0.00000   0.00000   0.00000
  46       14F-3        0.00000   0.00000  -0.00000   0.00000   0.00000
  47 2   O  1S          0.08202  -0.05743   0.00000   0.00000   0.00000
  48        2S         -0.21472   0.15645   0.00000   0.00000   0.00000
  49        3S         -0.06562   0.04919   0.00000   0.00000   0.00000
  50        4S         -0.24301   0.19036   0.00000   0.00000   0.00000
  51        5S         -0.03572   0.02282   0.00000   0.00000   0.00000
  52        6PX         0.00000   0.00000   0.00000   0.20467   0.25229
  53        6PY         0.00000   0.00000   0.20467   0.00000   0.00000
  54        6PZ        -0.17385   0.21278   0.00000   0.00000   0.00000
  55        7PX         0.00000   0.00000   0.00000   0.25826   0.32391
  56        7PY         0.00000   0.00000   0.25826   0.00000   0.00000
  57        7PZ        -0.21390   0.26071   0.00000   0.00000   0.00000
  58        8PX         0.00000   0.00000   0.00000   0.16141   0.24339
  59        8PY         0.00000   0.00000   0.16141   0.00000   0.00000
  60        8PZ        -0.09939   0.13252   0.00000   0.00000   0.00000
  61        9PX         0.00000   0.00000   0.00000   0.00302   0.02916
  62        9PY         0.00000   0.00000   0.00302   0.00000   0.00000
  63        9PZ        -0.00010   0.00150   0.00000   0.00000   0.00000
  64       10D 0        0.00782  -0.00935   0.00000   0.00000   0.00000
  65       10D+1        0.00000   0.00000   0.00000  -0.00773  -0.00564
  66       10D-1        0.00000   0.00000  -0.00773   0.00000   0.00000
  67       10D+2       -0.00000   0.00000   0.00000   0.00000   0.00000
  68       10D-2        0.00000   0.00000   0.00000   0.00000   0.00000
  69       11D 0        0.01567  -0.02163   0.00000   0.00000   0.00000
  70       11D+1        0.00000   0.00000   0.00000  -0.01671  -0.01983
  71       11D-1        0.00000   0.00000  -0.01671   0.00000   0.00000
  72       11D+2       -0.00000  -0.00000   0.00000   0.00000   0.00000
  73       11D-2        0.00000   0.00000   0.00000   0.00000   0.00000
  74       12D 0        0.00143  -0.00093   0.00000   0.00000   0.00000
  75       12D+1        0.00000   0.00000   0.00000  -0.00664  -0.01035
  76       12D-1        0.00000   0.00000  -0.00664   0.00000   0.00000
  77       12D+2       -0.00000  -0.00000   0.00000   0.00000   0.00000
  78       12D-2        0.00000   0.00000   0.00000   0.00000   0.00000
  79       13F 0       -0.00316   0.00420   0.00000   0.00000   0.00000
  80       13F+1        0.00000   0.00000   0.00000   0.00379   0.00370
  81       13F-1        0.00000   0.00000   0.00379   0.00000   0.00000
  82       13F+2       -0.00000  -0.00000   0.00000   0.00000   0.00000
  83       13F-2        0.00000   0.00000   0.00000   0.00000   0.00000
  84       13F+3        0.00000   0.00000   0.00000   0.00000  -0.00000
  85       13F-3        0.00000   0.00000   0.00000   0.00000   0.00000
  86       14F 0       -0.00130   0.00498   0.00000   0.00000   0.00000
  87       14F+1        0.00000   0.00000   0.00000   0.00090   0.00431
  88       14F-1        0.00000   0.00000   0.00090   0.00000   0.00000
  89       14F+2        0.00000   0.00000   0.00000   0.00000   0.00000
  90       14F-2        0.00000   0.00000   0.00000   0.00000   0.00000
  91       14F+3        0.00000   0.00000   0.00000  -0.00000  -0.00000
  92       14F-3        0.00000   0.00000   0.00000   0.00000   0.00000
  93 3   O  1S          0.08202   0.05743   0.00000   0.00000   0.00000
  94        2S         -0.21472  -0.15645   0.00000   0.00000   0.00000
  95        3S         -0.06562  -0.04919   0.00000   0.00000   0.00000
  96        4S         -0.24301  -0.19036   0.00000   0.00000   0.00000
  97        5S         -0.03572  -0.02282   0.00000   0.00000   0.00000
  98        6PX         0.00000   0.00000   0.00000   0.20467  -0.25229
  99        6PY         0.00000   0.00000   0.20467   0.00000   0.00000
 100        6PZ         0.17385   0.21278   0.00000   0.00000   0.00000
 101        7PX         0.00000   0.00000   0.00000   0.25826  -0.32391
 102        7PY         0.00000   0.00000   0.25826   0.00000   0.00000
 103        7PZ         0.21390   0.26071   0.00000   0.00000   0.00000
 104        8PX         0.00000   0.00000   0.00000   0.16141  -0.24339
 105        8PY         0.00000   0.00000   0.16141   0.00000   0.00000
 106        8PZ         0.09939   0.13252   0.00000   0.00000   0.00000
 107        9PX         0.00000   0.00000   0.00000   0.00302  -0.02916
 108        9PY         0.00000   0.00000   0.00302   0.00000   0.00000
 109        9PZ         0.00010   0.00150   0.00000   0.00000   0.00000
 110       10D 0        0.00782   0.00935   0.00000   0.00000   0.00000
 111       10D+1        0.00000   0.00000   0.00000   0.00773  -0.00564
 112       10D-1        0.00000   0.00000   0.00773   0.00000   0.00000
 113       10D+2       -0.00000  -0.00000   0.00000   0.00000   0.00000
 114       10D-2        0.00000   0.00000   0.00000   0.00000   0.00000
 115       11D 0        0.01567   0.02163   0.00000   0.00000   0.00000
 116       11D+1        0.00000   0.00000   0.00000   0.01671  -0.01983
 117       11D-1        0.00000   0.00000   0.01671   0.00000   0.00000
 118       11D+2       -0.00000   0.00000   0.00000   0.00000   0.00000
 119       11D-2        0.00000   0.00000   0.00000   0.00000   0.00000
 120       12D 0        0.00143   0.00093   0.00000   0.00000   0.00000
 121       12D+1        0.00000   0.00000   0.00000   0.00664  -0.01035
 122       12D-1        0.00000   0.00000   0.00664   0.00000   0.00000
 123       12D+2       -0.00000   0.00000   0.00000   0.00000   0.00000
 124       12D-2        0.00000   0.00000   0.00000   0.00000   0.00000
 125       13F 0        0.00316   0.00420   0.00000   0.00000   0.00000
 126       13F+1        0.00000   0.00000   0.00000   0.00379  -0.00370
 127       13F-1        0.00000   0.00000   0.00379   0.00000   0.00000
 128       13F+2        0.00000  -0.00000   0.00000   0.00000   0.00000
 129       13F-2        0.00000   0.00000   0.00000   0.00000   0.00000
 130       13F+3        0.00000   0.00000   0.00000   0.00000   0.00000
 131       13F-3        0.00000   0.00000   0.00000   0.00000   0.00000
 132       14F 0        0.00130   0.00498   0.00000   0.00000   0.00000
 133       14F+1        0.00000   0.00000   0.00000   0.00090  -0.00431
 134       14F-1        0.00000   0.00000   0.00090   0.00000   0.00000
 135       14F+2       -0.00000   0.00000   0.00000   0.00000   0.00000
 136       14F-2        0.00000   0.00000   0.00000   0.00000   0.00000
 137       14F+3        0.00000   0.00000   0.00000  -0.00000   0.00000
 138       14F-3        0.00000   0.00000   0.00000   0.00000   0.00000
                          11        12        13        14        15
                       (PIG)--O  (SGG)--V  (PIU)--V  (PIU)--V  (SGU)--V
     Eigenvalues --    -0.53998   0.04406   0.07394   0.07394   0.07923
   1 1   C  1S          0.00000  -0.01031   0.00000   0.00000   0.00000
   2        2S          0.00000   0.03552   0.00000   0.00000   0.00000
   3        3S          0.00000  -0.02001   0.00000   0.00000   0.00000
   4        4S          0.00000   2.66970   0.00000   0.00000   0.00000
   5        5S          0.00000   4.46106   0.00000   0.00000   0.00000
   6        6PX         0.00000   0.00000   0.01341   0.00000   0.00000
   7        6PY         0.00000   0.00000   0.00000   0.01341   0.00000
   8        6PZ         0.00000   0.00000   0.00000   0.00000   0.00142
   9        7PX         0.00000   0.00000  -0.01775   0.00000   0.00000
  10        7PY         0.00000   0.00000   0.00000  -0.01775   0.00000
  11        7PZ         0.00000   0.00000   0.00000   0.00000  -0.41406
  12        8PX         0.00000   0.00000  -0.15589   0.00000   0.00000
  13        8PY         0.00000   0.00000   0.00000  -0.15589   0.00000
  14        8PZ         0.00000   0.00000   0.00000   0.00000  -1.69957
  15        9PX         0.00000   0.00000   1.97955   0.00000   0.00000
  16        9PY         0.00000   0.00000   0.00000   1.97955   0.00000
  17        9PZ         0.00000   0.00000   0.00000   0.00000  -2.31170
  18       10D 0        0.00000  -0.02121   0.00000   0.00000   0.00000
  19       10D+1        0.00000   0.00000   0.00000   0.00000   0.00000
  20       10D-1        0.03353   0.00000   0.00000   0.00000   0.00000
  21       10D+2        0.00000   0.00000   0.00000   0.00000   0.00000
  22       10D-2        0.00000   0.00000   0.00000   0.00000   0.00000
  23       11D 0        0.00000   0.17767   0.00000   0.00000   0.00000
  24       11D+1        0.00000   0.00000   0.00000   0.00000   0.00000
  25       11D-1        0.05845   0.00000   0.00000   0.00000   0.00000
  26       11D+2        0.00000  -0.00000   0.00000   0.00000   0.00000
  27       11D-2        0.00000   0.00000   0.00000   0.00000   0.00000
  28       12D 0        0.00000   0.44588   0.00000   0.00000   0.00000
  29       12D+1        0.00000   0.00000   0.00000   0.00000   0.00000
  30       12D-1       -0.00143   0.00000   0.00000   0.00000   0.00000
  31       12D+2        0.00000   0.00000   0.00000   0.00000   0.00000
  32       12D-2        0.00000   0.00000   0.00000   0.00000   0.00000
  33       13F 0        0.00000   0.00000   0.00000   0.00000  -0.02863
  34       13F+1        0.00000   0.00000  -0.00405   0.00000   0.00000
  35       13F-1        0.00000   0.00000   0.00000  -0.00405   0.00000
  36       13F+2        0.00000   0.00000   0.00000   0.00000   0.00000
  37       13F-2        0.00000   0.00000   0.00000   0.00000   0.00000
  38       13F+3        0.00000   0.00000   0.00000   0.00000   0.00000
  39       13F-3        0.00000   0.00000   0.00000  -0.00000   0.00000
  40       14F 0        0.00000   0.00000   0.00000   0.00000  -0.03105
  41       14F+1        0.00000   0.00000  -0.08499   0.00000   0.00000
  42       14F-1        0.00000   0.00000   0.00000  -0.08499   0.00000
  43       14F+2        0.00000   0.00000   0.00000   0.00000  -0.00000
  44       14F-2        0.00000   0.00000   0.00000   0.00000   0.00000
  45       14F+3        0.00000   0.00000  -0.00000   0.00000   0.00000
  46       14F-3        0.00000   0.00000   0.00000   0.00000   0.00000
  47 2   O  1S          0.00000   0.02980   0.00000   0.00000  -0.01610
  48        2S          0.00000  -0.06581   0.00000   0.00000   0.02664
  49        3S          0.00000  -0.02006   0.00000   0.00000   0.00163
  50        4S          0.00000  -0.67944   0.00000   0.00000   0.66339
  51        5S          0.00000  -2.77895   0.00000   0.00000   3.09946
  52        6PX         0.00000   0.00000  -0.04846   0.00000   0.00000
  53        6PY         0.25229   0.00000   0.00000  -0.04846   0.00000
  54        6PZ         0.00000   0.03242   0.00000   0.00000   0.02008
  55        7PX         0.00000   0.00000  -0.06229   0.00000   0.00000
  56        7PY         0.32391   0.00000   0.00000  -0.06229   0.00000
  57        7PZ         0.00000   0.07038   0.00000   0.00000  -0.01594
  58        8PX         0.00000   0.00000   0.10052   0.00000   0.00000
  59        8PY         0.24339   0.00000   0.00000   0.10052   0.00000
  60        8PZ         0.00000   0.42300   0.00000   0.00000  -0.49407
  61        9PX         0.00000   0.00000  -0.64598   0.00000   0.00000
  62        9PY         0.02916   0.00000   0.00000  -0.64598   0.00000
  63        9PZ         0.00000   0.57104   0.00000   0.00000  -0.42526
  64       10D 0        0.00000  -0.00070   0.00000   0.00000  -0.00330
  65       10D+1        0.00000   0.00000   0.00208   0.00000   0.00000
  66       10D-1       -0.00564   0.00000   0.00000   0.00208   0.00000
  67       10D+2        0.00000   0.00000   0.00000   0.00000  -0.00000
  68       10D-2        0.00000   0.00000   0.00000   0.00000   0.00000
  69       11D 0        0.00000  -0.01770   0.00000   0.00000   0.05112
  70       11D+1        0.00000   0.00000  -0.01503   0.00000   0.00000
  71       11D-1       -0.01983   0.00000   0.00000  -0.01503   0.00000
  72       11D+2        0.00000   0.00000   0.00000   0.00000   0.00000
  73       11D-2        0.00000   0.00000   0.00000   0.00000   0.00000
  74       12D 0        0.00000  -0.06235   0.00000   0.00000   0.07646
  75       12D+1        0.00000   0.00000  -0.02696   0.00000   0.00000
  76       12D-1       -0.01035   0.00000   0.00000  -0.02696   0.00000
  77       12D+2        0.00000  -0.00000   0.00000   0.00000   0.00000
  78       12D-2        0.00000   0.00000   0.00000   0.00000   0.00000
  79       13F 0        0.00000   0.00142   0.00000   0.00000  -0.00278
  80       13F+1        0.00000   0.00000  -0.00006   0.00000   0.00000
  81       13F-1        0.00370   0.00000   0.00000  -0.00006   0.00000
  82       13F+2        0.00000  -0.00000   0.00000   0.00000   0.00000
  83       13F-2        0.00000   0.00000   0.00000   0.00000   0.00000
  84       13F+3        0.00000   0.00000   0.00000   0.00000   0.00000
  85       13F-3        0.00000   0.00000   0.00000  -0.00000   0.00000
  86       14F 0        0.00000  -0.00256   0.00000   0.00000  -0.01850
  87       14F+1        0.00000   0.00000   0.00306   0.00000   0.00000
  88       14F-1        0.00431   0.00000   0.00000   0.00306   0.00000
  89       14F+2        0.00000   0.00000   0.00000   0.00000  -0.00000
  90       14F-2        0.00000   0.00000   0.00000   0.00000   0.00000
  91       14F+3        0.00000   0.00000  -0.00000   0.00000   0.00000
  92       14F-3        0.00000   0.00000   0.00000  -0.00000   0.00000
  93 3   O  1S          0.00000   0.02980   0.00000   0.00000   0.01610
  94        2S          0.00000  -0.06581   0.00000   0.00000  -0.02664
  95        3S          0.00000  -0.02006   0.00000   0.00000  -0.00163
  96        4S          0.00000  -0.67944   0.00000   0.00000  -0.66339
  97        5S          0.00000  -2.77895   0.00000   0.00000  -3.09946
  98        6PX         0.00000   0.00000  -0.04846   0.00000   0.00000
  99        6PY        -0.25229   0.00000   0.00000  -0.04846   0.00000
 100        6PZ         0.00000  -0.03242   0.00000   0.00000   0.02008
 101        7PX         0.00000   0.00000  -0.06229   0.00000   0.00000
 102        7PY        -0.32391   0.00000   0.00000  -0.06229   0.00000
 103        7PZ         0.00000  -0.07038   0.00000   0.00000  -0.01594
 104        8PX         0.00000   0.00000   0.10052   0.00000   0.00000
 105        8PY        -0.24339   0.00000   0.00000   0.10052   0.00000
 106        8PZ         0.00000  -0.42300   0.00000   0.00000  -0.49407
 107        9PX         0.00000   0.00000  -0.64598   0.00000   0.00000
 108        9PY        -0.02916   0.00000   0.00000  -0.64598   0.00000
 109        9PZ         0.00000  -0.57104   0.00000   0.00000  -0.42526
 110       10D 0        0.00000  -0.00070   0.00000   0.00000   0.00330
 111       10D+1        0.00000   0.00000  -0.00208   0.00000   0.00000
 112       10D-1       -0.00564   0.00000   0.00000  -0.00208   0.00000
 113       10D+2        0.00000   0.00000   0.00000   0.00000   0.00000
 114       10D-2        0.00000   0.00000   0.00000   0.00000   0.00000
 115       11D 0        0.00000  -0.01770   0.00000   0.00000  -0.05112
 116       11D+1        0.00000   0.00000   0.01503   0.00000   0.00000
 117       11D-1       -0.01983   0.00000   0.00000   0.01503   0.00000
 118       11D+2        0.00000   0.00000   0.00000   0.00000  -0.00000
 119       11D-2        0.00000   0.00000   0.00000   0.00000   0.00000
 120       12D 0        0.00000  -0.06235   0.00000   0.00000  -0.07646
 121       12D+1        0.00000   0.00000   0.02696   0.00000   0.00000
 122       12D-1       -0.01035   0.00000   0.00000   0.02696   0.00000
 123       12D+2        0.00000  -0.00000   0.00000   0.00000  -0.00000
 124       12D-2        0.00000   0.00000   0.00000   0.00000   0.00000
 125       13F 0        0.00000  -0.00142   0.00000   0.00000  -0.00278
 126       13F+1        0.00000   0.00000  -0.00006   0.00000   0.00000
 127       13F-1       -0.00370   0.00000   0.00000  -0.00006   0.00000
 128       13F+2        0.00000   0.00000   0.00000   0.00000   0.00000
 129       13F-2        0.00000   0.00000   0.00000   0.00000   0.00000
 130       13F+3        0.00000   0.00000   0.00000   0.00000   0.00000
 131       13F-3       -0.00000   0.00000   0.00000  -0.00000   0.00000
 132       14F 0        0.00000   0.00256   0.00000   0.00000  -0.01850
 133       14F+1        0.00000   0.00000   0.00306   0.00000   0.00000
 134       14F-1       -0.00431   0.00000   0.00000   0.00306   0.00000
 135       14F+2        0.00000  -0.00000   0.00000   0.00000  -0.00000
 136       14F-2        0.00000   0.00000   0.00000   0.00000   0.00000
 137       14F+3        0.00000   0.00000  -0.00000   0.00000   0.00000
 138       14F-3       -0.00000   0.00000   0.00000  -0.00000   0.00000
                          16        17        18        19        20
                       (PIU)--V  (PIU)--V  (SGG)--V  (PIG)--V  (PIG)--V
     Eigenvalues --     0.13710   0.13710   0.15988   0.16512   0.16512
   1 1   C  1S          0.00000   0.00000   0.00266   0.00000   0.00000
   2        2S          0.00000   0.00000   0.13441   0.00000   0.00000
   3        3S          0.00000   0.00000   0.06922   0.00000   0.00000
   4        4S          0.00000   0.00000   2.86256   0.00000   0.00000
   5        5S          0.00000   0.00000   0.68152   0.00000   0.00000
   6        6PX         0.00000   0.29305   0.00000   0.00000   0.00000
   7        6PY         0.29305   0.00000   0.00000   0.00000   0.00000
   8        6PZ         0.00000   0.00000   0.00000   0.00000   0.00000
   9        7PX         0.00000   0.48088   0.00000   0.00000   0.00000
  10        7PY         0.48088   0.00000   0.00000   0.00000   0.00000
  11        7PZ         0.00000   0.00000   0.00000   0.00000   0.00000
  12        8PX         0.00000   1.10173   0.00000   0.00000   0.00000
  13        8PY         1.10173   0.00000   0.00000   0.00000   0.00000
  14        8PZ         0.00000   0.00000   0.00000   0.00000   0.00000
  15        9PX         0.00000   0.01870   0.00000   0.00000   0.00000
  16        9PY         0.01870   0.00000   0.00000   0.00000   0.00000
  17        9PZ         0.00000   0.00000   0.00000   0.00000   0.00000
  18       10D 0        0.00000   0.00000   0.00169   0.00000   0.00000
  19       10D+1        0.00000   0.00000   0.00000  -0.00332   0.00000
  20       10D-1        0.00000   0.00000   0.00000   0.00000  -0.00332
  21       10D+2        0.00000   0.00000   0.00000   0.00000   0.00000
  22       10D-2        0.00000   0.00000   0.00000   0.00000   0.00000
  23       11D 0        0.00000   0.00000   0.09457   0.00000   0.00000
  24       11D+1        0.00000   0.00000   0.00000  -0.37075   0.00000
  25       11D-1        0.00000   0.00000   0.00000   0.00000  -0.37075
  26       11D+2        0.00000   0.00000   0.00000   0.00000   0.00000
  27       11D-2        0.00000   0.00000   0.00000   0.00000   0.00000
  28       12D 0        0.00000   0.00000  -0.62651   0.00000   0.00000
  29       12D+1        0.00000   0.00000   0.00000  -1.32343   0.00000
  30       12D-1        0.00000   0.00000   0.00000   0.00000  -1.32343
  31       12D+2        0.00000   0.00000  -0.00000   0.00000   0.00000
  32       12D-2        0.00000   0.00000   0.00000   0.00000   0.00000
  33       13F 0        0.00000   0.00000   0.00000   0.00000   0.00000
  34       13F+1        0.00000  -0.00501   0.00000   0.00000   0.00000
  35       13F-1       -0.00501   0.00000   0.00000   0.00000   0.00000
  36       13F+2        0.00000   0.00000   0.00000   0.00000   0.00000
  37       13F-2        0.00000   0.00000   0.00000   0.00000   0.00000
  38       13F+3        0.00000  -0.00000   0.00000   0.00000   0.00000
  39       13F-3        0.00000   0.00000   0.00000   0.00000   0.00000
  40       14F 0        0.00000   0.00000   0.00000   0.00000   0.00000
  41       14F+1        0.00000   0.08620   0.00000   0.00000   0.00000
  42       14F-1        0.08620   0.00000   0.00000   0.00000   0.00000
  43       14F+2        0.00000   0.00000   0.00000   0.00000   0.00000
  44       14F-2        0.00000   0.00000   0.00000   0.00000   0.00000
  45       14F+3        0.00000   0.00000   0.00000   0.00000   0.00000
  46       14F-3       -0.00000   0.00000   0.00000   0.00000   0.00000
  47 2   O  1S          0.00000   0.00000  -0.00398   0.00000   0.00000
  48        2S          0.00000   0.00000   0.00930   0.00000   0.00000
  49        3S          0.00000   0.00000   0.00238   0.00000   0.00000
  50        4S          0.00000   0.00000   0.05366   0.00000   0.00000
  51        5S          0.00000   0.00000  -1.13727   0.00000   0.00000
  52        6PX         0.00000  -0.16198   0.00000  -0.03885   0.00000
  53        6PY        -0.16198   0.00000   0.00000   0.00000  -0.03885
  54        6PZ         0.00000   0.00000  -0.04452   0.00000   0.00000
  55        7PX         0.00000  -0.20859   0.00000  -0.07543   0.00000
  56        7PY        -0.20859   0.00000   0.00000   0.00000  -0.07543
  57        7PZ         0.00000   0.00000  -0.08137   0.00000   0.00000
  58        8PX         0.00000  -0.47596   0.00000   0.49374   0.00000
  59        8PY        -0.47596   0.00000   0.00000   0.00000   0.49374
  60        8PZ         0.00000   0.00000   0.31870   0.00000   0.00000
  61        9PX         0.00000  -0.33738   0.00000   1.87893   0.00000
  62        9PY        -0.33738   0.00000   0.00000   0.00000   1.87893
  63        9PZ         0.00000   0.00000   1.59259   0.00000   0.00000
  64       10D 0        0.00000   0.00000   0.00053   0.00000   0.00000
  65       10D+1        0.00000  -0.00815   0.00000   0.00290   0.00000
  66       10D-1       -0.00815   0.00000   0.00000   0.00000   0.00290
  67       10D+2        0.00000   0.00000   0.00000   0.00000   0.00000
  68       10D-2        0.00000   0.00000   0.00000   0.00000   0.00000
  69       11D 0        0.00000   0.00000   0.02863   0.00000   0.00000
  70       11D+1        0.00000  -0.00771   0.00000  -0.00662   0.00000
  71       11D-1       -0.00771   0.00000   0.00000   0.00000  -0.00662
  72       11D+2        0.00000   0.00000  -0.00000   0.00000   0.00000
  73       11D-2        0.00000   0.00000   0.00000   0.00000   0.00000
  74       12D 0        0.00000   0.00000  -0.22967   0.00000   0.00000
  75       12D+1        0.00000   0.07027   0.00000  -0.35092   0.00000
  76       12D-1        0.07027   0.00000   0.00000   0.00000  -0.35092
  77       12D+2        0.00000   0.00000   0.00000   0.00000   0.00000
  78       12D-2        0.00000   0.00000   0.00000   0.00000   0.00000
  79       13F 0        0.00000   0.00000  -0.00377   0.00000   0.00000
  80       13F+1        0.00000   0.00333   0.00000  -0.00764   0.00000
  81       13F-1        0.00333   0.00000   0.00000   0.00000  -0.00764
  82       13F+2        0.00000   0.00000  -0.00000   0.00000   0.00000
  83       13F-2        0.00000   0.00000   0.00000   0.00000   0.00000
  84       13F+3        0.00000  -0.00000   0.00000   0.00000   0.00000
  85       13F-3       -0.00000   0.00000   0.00000   0.00000   0.00000
  86       14F 0        0.00000   0.00000   0.01167   0.00000   0.00000
  87       14F+1        0.00000  -0.00757   0.00000   0.05722   0.00000
  88       14F-1       -0.00757   0.00000   0.00000   0.00000   0.05722
  89       14F+2        0.00000   0.00000   0.00000   0.00000   0.00000
  90       14F-2        0.00000   0.00000   0.00000   0.00000   0.00000
  91       14F+3        0.00000  -0.00000   0.00000   0.00000   0.00000
  92       14F-3        0.00000   0.00000   0.00000   0.00000  -0.00000
  93 3   O  1S          0.00000   0.00000  -0.00398   0.00000   0.00000
  94        2S          0.00000   0.00000   0.00930   0.00000   0.00000
  95        3S          0.00000   0.00000   0.00238   0.00000   0.00000
  96        4S          0.00000   0.00000   0.05366   0.00000   0.00000
  97        5S          0.00000   0.00000  -1.13727   0.00000   0.00000
  98        6PX         0.00000  -0.16198   0.00000   0.03885   0.00000
  99        6PY        -0.16198   0.00000   0.00000   0.00000   0.03885
 100        6PZ         0.00000   0.00000   0.04452   0.00000   0.00000
 101        7PX         0.00000  -0.20859   0.00000   0.07543   0.00000
 102        7PY        -0.20859   0.00000   0.00000   0.00000   0.07543
 103        7PZ         0.00000   0.00000   0.08137   0.00000   0.00000
 104        8PX         0.00000  -0.47596   0.00000  -0.49374   0.00000
 105        8PY        -0.47596   0.00000   0.00000   0.00000  -0.49374
 106        8PZ         0.00000   0.00000  -0.31870   0.00000   0.00000
 107        9PX         0.00000  -0.33738   0.00000  -1.87893   0.00000
 108        9PY        -0.33738   0.00000   0.00000   0.00000  -1.87893
 109        9PZ         0.00000   0.00000  -1.59259   0.00000   0.00000
 110       10D 0        0.00000   0.00000   0.00053   0.00000   0.00000
 111       10D+1        0.00000   0.00815   0.00000   0.00290   0.00000
 112       10D-1        0.00815   0.00000   0.00000   0.00000   0.00290
 113       10D+2        0.00000   0.00000   0.00000   0.00000   0.00000
 114       10D-2        0.00000   0.00000   0.00000   0.00000   0.00000
 115       11D 0        0.00000   0.00000   0.02863   0.00000   0.00000
 116       11D+1        0.00000   0.00771   0.00000  -0.00662   0.00000
 117       11D-1        0.00771   0.00000   0.00000   0.00000  -0.00662
 118       11D+2        0.00000   0.00000  -0.00000   0.00000   0.00000
 119       11D-2        0.00000   0.00000   0.00000   0.00000   0.00000
 120       12D 0        0.00000   0.00000  -0.22967   0.00000   0.00000
 121       12D+1        0.00000  -0.07027   0.00000  -0.35092   0.00000
 122       12D-1       -0.07027   0.00000   0.00000   0.00000  -0.35092
 123       12D+2        0.00000   0.00000   0.00000   0.00000   0.00000
 124       12D-2        0.00000   0.00000   0.00000   0.00000   0.00000
 125       13F 0        0.00000   0.00000   0.00377   0.00000   0.00000
 126       13F+1        0.00000   0.00333   0.00000   0.00764   0.00000
 127       13F-1        0.00333   0.00000   0.00000   0.00000   0.00764
 128       13F+2        0.00000   0.00000   0.00000   0.00000   0.00000
 129       13F-2        0.00000   0.00000   0.00000   0.00000   0.00000
 130       13F+3        0.00000  -0.00000   0.00000  -0.00000   0.00000
 131       13F-3       -0.00000   0.00000   0.00000   0.00000  -0.00000
 132       14F 0        0.00000   0.00000  -0.01167   0.00000   0.00000
 133       14F+1        0.00000  -0.00757   0.00000  -0.05722   0.00000
 134       14F-1       -0.00757   0.00000   0.00000   0.00000  -0.05722
 135       14F+2        0.00000   0.00000  -0.00000   0.00000   0.00000
 136       14F-2        0.00000   0.00000   0.00000   0.00000   0.00000
 137       14F+3        0.00000  -0.00000   0.00000  -0.00000   0.00000
 138       14F-3        0.00000   0.00000   0.00000   0.00000   0.00000
                          21        22        23        24        25
                       (SGG)--V  (SGU)--V  (PIU)--V  (PIU)--V  (DLTG)--
     Eigenvalues --     0.18962   0.22183   0.24617   0.24617   0.27828
   1 1   C  1S          0.04806   0.00000   0.00000   0.00000  -0.00000
   2        2S         -0.18642   0.00000   0.00000   0.00000   0.00000
   3        3S         -0.10866   0.00000   0.00000   0.00000  -0.00000
   4        4S          4.88739   0.00000   0.00000   0.00000   0.00000
   5        5S          6.58024   0.00000   0.00000   0.00000   0.00000
   6        6PX         0.00000   0.00000   0.00396   0.00000   0.00000
   7        6PY         0.00000   0.00000   0.00000   0.00396   0.00000
   8        6PZ         0.00000  -0.01631   0.00000   0.00000   0.00000
   9        7PX         0.00000   0.00000   0.06641   0.00000   0.00000
  10        7PY         0.00000   0.00000   0.00000   0.06641   0.00000
  11        7PZ         0.00000  -0.23261   0.00000   0.00000   0.00000
  12        8PX         0.00000   0.00000   1.18243   0.00000   0.00000
  13        8PY         0.00000   0.00000   0.00000   1.18243   0.00000
  14        8PZ         0.00000  -3.51247   0.00000   0.00000   0.00000
  15        9PX         0.00000   0.00000   2.76702   0.00000   0.00000
  16        9PY         0.00000   0.00000   0.00000   2.76702   0.00000
  17        9PZ         0.00000   2.29250   0.00000   0.00000   0.00000
  18       10D 0        0.03325   0.00000   0.00000   0.00000  -0.00000
  19       10D+1        0.00000   0.00000   0.00000   0.00000   0.00000
  20       10D-1        0.00000   0.00000   0.00000   0.00000   0.00000
  21       10D+2        0.00000   0.00000   0.00000   0.00000   0.03493
  22       10D-2        0.00000   0.00000   0.00000   0.00000   0.00000
  23       11D 0        0.58966   0.00000   0.00000   0.00000   0.00000
  24       11D+1        0.00000   0.00000   0.00000   0.00000   0.00000
  25       11D-1        0.00000   0.00000   0.00000   0.00000   0.00000
  26       11D+2       -0.00000   0.00000   0.00000   0.00000  -0.06714
  27       11D-2        0.00000   0.00000   0.00000   0.00000   0.00000
  28       12D 0        1.69017   0.00000   0.00000   0.00000   0.00000
  29       12D+1        0.00000   0.00000   0.00000   0.00000   0.00000
  30       12D-1        0.00000   0.00000   0.00000   0.00000   0.00000
  31       12D+2        0.00000   0.00000   0.00000   0.00000   1.10329
  32       12D-2        0.00000   0.00000   0.00000   0.00000   0.00000
  33       13F 0        0.00000   0.00107   0.00000   0.00000   0.00000
  34       13F+1        0.00000   0.00000   0.00025   0.00000   0.00000
  35       13F-1        0.00000   0.00000   0.00000   0.00025   0.00000
  36       13F+2        0.00000  -0.00000   0.00000   0.00000   0.00000
  37       13F-2        0.00000   0.00000   0.00000   0.00000   0.00000
  38       13F+3        0.00000   0.00000  -0.00000   0.00000   0.00000
  39       13F-3        0.00000   0.00000   0.00000   0.00000   0.00000
  40       14F 0        0.00000  -0.25519   0.00000   0.00000   0.00000
  41       14F+1        0.00000   0.00000   0.08942   0.00000   0.00000
  42       14F-1        0.00000   0.00000   0.00000   0.08942   0.00000
  43       14F+2        0.00000  -0.00000   0.00000   0.00000   0.00000
  44       14F-2        0.00000   0.00000   0.00000   0.00000   0.00000
  45       14F+3        0.00000   0.00000   0.00000   0.00000   0.00000
  46       14F-3        0.00000   0.00000   0.00000  -0.00000   0.00000
  47 2   O  1S         -0.04357  -0.00174   0.00000   0.00000   0.00000
  48        2S          0.17150  -0.01013   0.00000   0.00000  -0.00000
  49        3S          0.05300  -0.00135   0.00000   0.00000  -0.00000
  50        4S         -1.25951   1.22498   0.00000   0.00000  -0.00000
  51        5S         -5.54724   3.80341   0.00000   0.00000  -0.00000
  52        6PX         0.00000   0.00000   0.07981   0.00000   0.00000
  53        6PY         0.00000   0.00000   0.00000   0.07981   0.00000
  54        6PZ        -0.10364   0.01402   0.00000   0.00000   0.00000
  55        7PX         0.00000   0.00000   0.07165   0.00000   0.00000
  56        7PY         0.00000   0.00000   0.00000   0.07165   0.00000
  57        7PZ        -0.06020  -0.03466   0.00000   0.00000   0.00000
  58        8PX         0.00000   0.00000   0.05033   0.00000   0.00000
  59        8PY         0.00000   0.00000   0.00000   0.05033   0.00000
  60        8PZ         0.67560  -0.37716   0.00000   0.00000   0.00000
  61        9PX         0.00000   0.00000  -2.37218   0.00000   0.00000
  62        9PY         0.00000   0.00000   0.00000  -2.37218   0.00000
  63        9PZ         0.32729  -3.52934   0.00000   0.00000   0.00000
  64       10D 0        0.00350  -0.00165   0.00000   0.00000   0.00000
  65       10D+1        0.00000   0.00000   0.00131   0.00000   0.00000
  66       10D-1        0.00000   0.00000   0.00000   0.00131   0.00000
  67       10D+2        0.00000   0.00000   0.00000   0.00000   0.00093
  68       10D-2        0.00000   0.00000   0.00000   0.00000   0.00000
  69       11D 0       -0.03923  -0.00411   0.00000   0.00000  -0.00000
  70       11D+1        0.00000   0.00000  -0.02649   0.00000   0.00000
  71       11D-1        0.00000   0.00000   0.00000  -0.02649   0.00000
  72       11D+2        0.00000  -0.00000   0.00000   0.00000   0.03359
  73       11D-2        0.00000   0.00000   0.00000   0.00000   0.00000
  74       12D 0       -0.06913   0.07079   0.00000   0.00000  -0.00000
  75       12D+1        0.00000   0.00000   0.24645   0.00000   0.00000
  76       12D-1        0.00000   0.00000   0.00000   0.24645   0.00000
  77       12D+2       -0.00000   0.00000   0.00000   0.00000  -0.07946
  78       12D-2        0.00000   0.00000   0.00000   0.00000   0.00000
  79       13F 0        0.00220   0.00164   0.00000   0.00000   0.00000
  80       13F+1        0.00000   0.00000   0.00522   0.00000   0.00000
  81       13F-1        0.00000   0.00000   0.00000   0.00522   0.00000
  82       13F+2       -0.00000   0.00000   0.00000   0.00000  -0.00195
  83       13F-2        0.00000   0.00000   0.00000   0.00000   0.00000
  84       13F+3        0.00000   0.00000  -0.00000   0.00000   0.00000
  85       13F-3        0.00000   0.00000   0.00000   0.00000   0.00000
  86       14F 0       -0.01360  -0.01495   0.00000   0.00000  -0.00000
  87       14F+1        0.00000   0.00000  -0.02103   0.00000   0.00000
  88       14F-1        0.00000   0.00000   0.00000  -0.02103   0.00000
  89       14F+2       -0.00000  -0.00000   0.00000   0.00000  -0.00236
  90       14F-2        0.00000   0.00000   0.00000   0.00000   0.00000
  91       14F+3        0.00000   0.00000  -0.00000   0.00000   0.00000
  92       14F-3        0.00000   0.00000   0.00000   0.00000   0.00000
  93 3   O  1S         -0.04357   0.00174   0.00000   0.00000   0.00000
  94        2S          0.17150   0.01013   0.00000   0.00000  -0.00000
  95        3S          0.05300   0.00135   0.00000   0.00000  -0.00000
  96        4S         -1.25951  -1.22498   0.00000   0.00000  -0.00000
  97        5S         -5.54724  -3.80341   0.00000   0.00000  -0.00000
  98        6PX         0.00000   0.00000   0.07981   0.00000   0.00000
  99        6PY         0.00000   0.00000   0.00000   0.07981   0.00000
 100        6PZ         0.10364   0.01402   0.00000   0.00000  -0.00000
 101        7PX         0.00000   0.00000   0.07165   0.00000   0.00000
 102        7PY         0.00000   0.00000   0.00000   0.07165   0.00000
 103        7PZ         0.06020  -0.03466   0.00000   0.00000  -0.00000
 104        8PX         0.00000   0.00000   0.05033   0.00000   0.00000
 105        8PY         0.00000   0.00000   0.00000   0.05033   0.00000
 106        8PZ        -0.67560  -0.37716   0.00000   0.00000  -0.00000
 107        9PX         0.00000   0.00000  -2.37218   0.00000   0.00000
 108        9PY         0.00000   0.00000   0.00000  -2.37218   0.00000
 109        9PZ        -0.32729  -3.52934   0.00000   0.00000  -0.00000
 110       10D 0        0.00350   0.00165   0.00000   0.00000   0.00000
 111       10D+1        0.00000   0.00000  -0.00131   0.00000   0.00000
 112       10D-1        0.00000   0.00000   0.00000  -0.00131   0.00000
[...]
 (Enter /Users/asuyarger/Applications/G16/g16/l716.exe)
 Dipole        =-1.03134012D-16 4.81482486D-34 0.00000000D+00
 Polarizability= 1.15235786D+01 0.00000000D+00 1.15235786D+01
                -7.26839257D-16 0.00000000D+00 2.27348535D+01
 HyperPolar    =-3.13255915D-15-4.12570179D-16-1.15619917D-15
                -1.23771054D-15-2.67047103D-14 9.36466492D-30
                -1.69623077D-14-5.74098812D-15-1.16763674D-15
                -6.90433146D-15
 Full mass-weighted force constant matrix:
 Low frequencies ---   -0.1032   -0.1032   -0.0008    0.0013    0.0013  774.9763
 Low frequencies ---  774.9763 1509.1903 2548.9391
 Diagonal vibrational polarizability:
        2.7047075       2.7047075       4.4668629
 Diagonal vibrational hyperpolarizability:
        0.0000000       0.0000000       0.0000000
 Harmonic frequencies (cm**-1), IR intensities (KM/Mole), Raman scattering
 activities (A**4/AMU), depolarization ratios for plane and unpolarized
 incident light, reduced masses (AMU), force constants (mDyne/A),
 and normal coordinates:
                      1                      2                      3
                     PIU                    PIU                    SGG
 Frequencies --    774.9763               774.9763              1509.1903
 Red. masses --     12.8774                12.8774                15.9949
 Frc consts  --      4.5567                 4.5567                21.4645
 IR Inten    --     60.3621                60.3621                 0.0000
 Raman Activ --      0.0000                 0.0000                16.6542
 Depolar (P) --      0.0000                 0.0000                 0.0939
 Depolar (U) --      0.0000                 0.0000                 0.1718
  Atom  AN      X      Y      Z        X      Y      Z        X      Y      Z
     1   6     0.88  -0.00  -0.00     0.00   0.88  -0.00     0.00  -0.00   0.00
     2   8    -0.33   0.00   0.00    -0.00  -0.33   0.00    -0.00   0.00   0.71
     3   8    -0.33   0.00   0.00    -0.00  -0.33  -0.00    -0.00   0.00  -0.71
                      4
                     SGU
 Frequencies --   2548.9391
 Red. masses --     12.8774
 Frc consts  --     49.2942
 IR Inten    --   1078.4212
 Raman Activ --      0.0000
 Depolar (P) --      0.0000
 Depolar (U) --      0.0000
  Atom  AN      X      Y      Z
     1   6     0.00   0.00   0.88
     2   8    -0.00  -0.00  -0.33
     3   8    -0.00  -0.00  -0.33

 -------------------
 - Thermochemistry -
 -------------------
 Temperature   298.150 Kelvin.  Pressure   1.00000 Atm.
 Atom     1 has atomic number  6 and mass  12.00000
 Atom     2 has atomic number  8 and mass  15.99491
 Atom     3 has atomic number  8 and mass  15.99491
 Molecular mass:    43.98983 amu.
 Principal axes and moments of inertia in atomic units:
                           1         2         3
     Eigenvalues --     0.00000 147.48816 147.48816
           X           -0.00000   1.00000  -0.00000
           Y            0.00000   0.00000   1.00000
           Z            1.00000   0.00000  -0.00000
 This molecule is a prolate symmetric top.
 Rotational symmetry number  2.
 Rotational temperature (Kelvin)      0.58726
 Rotational constant (GHZ):          12.236516
 Zero-point vibrational energy      33543.8 (Joules/Mol)
                                    8.01716 (Kcal/Mol)
 Vibrational temperatures:   1115.02  1115.02  2171.39  3667.35
          (Kelvin)
 
 Zero-point correction=                           0.012776 (Hartree/Particle)
 Thermal correction to Energy=                    0.015313
 Thermal correction to Enthalpy=                  0.016257
 Thermal correction to Gibbs Free Energy=        -0.007845
 Sum of electronic and zero-point Energies=           -187.699363
 Sum of electronic and thermal Energies=              -187.696826
 Sum of electronic and thermal Enthalpies=            -187.695882
 Sum of electronic and thermal Free Energies=         -187.719985
 
                     E (Thermal)             CV                S
                      KCal/Mol        Cal/Mol-Kelvin    Cal/Mol-Kelvin
 Total                    9.609              6.428             50.729
 Electronic               0.000              0.000              0.000
 Translational            0.889              2.981             37.270
 Rotational               0.592              1.987             12.990
 Vibrational              8.128              1.460              0.469
                       Q            Log10(Q)             Ln(Q)
 Total Bot       0.406094D+04          3.608627          8.309170
 Total V=0       0.305663D+10          9.485243         21.840579
 Vib (Bot)       0.139499D-05         -5.855430        -13.482625
 Vib (V=0)       0.104999D+01          0.021187          0.048784
 Electronic      0.100000D+01          0.000000          0.000000
 Translational   0.114679D+08          7.059482         16.255059
 Rotational      0.253848D+03          2.404574          5.536737
 
                                            CO2 uHF 6-311++g(2d,3p) Opt Freq - Fu
 ll - NBO
                                                             IR Spectrum
 
     2                                                   1                                                                           
     5                                                   5                                    7                                      
     4                                                   0                                    7                                      
     9                                                   9                                    5                                      
 
     X                                                                                        X                                      
     X                                                                                        X                                      
     X                                                                                                                               
     X                                                                                                                               
     X                                                                                                                               
     X                                                                                                                               
     X                                                                                                                               
     X                                                                                                                               
     X                                                                                                                               
     X                                                                                                                               
     X                                                                                                                               
     X                                                                                                                               
     X                                                                                                                               
     X                                                                                                                               
     X                                                                                                                               
     X                                                                                                                               
     X                                                                                                                               
     X                                                                                                                               
     X                                                                                                                               
     X                                                                                                                               
 
 
                                            CO2 uHF 6-311++g(2d,3p) Opt Freq - Fu
 ll - NBO
                                                            Raman Spectrum
 
     2                                                   1                                                                           
     5                                                   5                                    7                                      
     4                                                   0                                    7                                      
     9                                                   9                                    5                                      
 
                                                         X                                                                           
                                                         X                                                                           
                                                         X                                                                           
                                                         X                                                                           
                                                         X                                                                           
                                                         X                                                                           
                                                         X                                                                           
                                                         X                                                                           
                                                         X                                                                           
                                                         X                                                                           
                                                         X                                                                           
                                                         X                                                                           
                                                         X                                                                           
                                                         X                                                                           
                                                         X                                                                           
                                                         X                                                                           
                                                         X                                                                           
                                                         X                                                                           
                                                         X                                                                           
                                                         X                                                                           
 
 ***** Axes restored to original set *****
 -------------------------------------------------------------------
 Center     Atomic                   Forces (Hartrees/Bohr)
 Number     Number              X              Y              Z
 -------------------------------------------------------------------
      1        6           0.000000000    0.000000000   -0.000000000
      2        8          -0.000000033    0.000000000   -0.000000000
      3        8           0.000000033   -0.000000000    0.000000000
 -------------------------------------------------------------------
 Cartesian Forces:  Max     0.000000033 RMS     0.000000015
 Force constants in Cartesian coordinates: 
                1             2             3             4             5 
      1  0.214561D+01
      2  0.000000D+00  0.198340D+00
      3  0.000000D+00  0.000000D+00  0.198340D+00
      4 -0.107281D+01  0.000000D+00  0.000000D+00  0.122574D+01
      5  0.000000D+00 -0.991698D-01  0.000000D+00  0.000000D+00  0.495849D-01
      6  0.000000D+00  0.000000D+00 -0.991698D-01  0.000000D+00  0.000000D+00
      7 -0.107281D+01  0.000000D+00  0.000000D+00 -0.152934D+00  0.000000D+00
      8  0.000000D+00 -0.991698D-01  0.000000D+00  0.000000D+00  0.495849D-01
      9  0.000000D+00  0.000000D+00 -0.991698D-01  0.000000D+00  0.000000D+00
                6             7             8             9 
      6  0.495849D-01
      7  0.000000D+00  0.122574D+01
      8  0.000000D+00  0.000000D+00  0.495849D-01
      9  0.495849D-01  0.000000D+00  0.000000D+00  0.495849D-01
 FormGI is forming the generalized inverse of G from B-inverse, IUseBI=4.
 Force constants in internal coordinates: 
                1             2             3             4 
      1  0.122574D+01
      2  0.152934D+00  0.122574D+01
      3  0.000000D+00  0.000000D+00  0.228610D+00
      4  0.000000D+00  0.000000D+00  0.000000D+00  0.228610D+00
 Leave Link  716 at Fri Sep  6 10:33:45 2024, MaxMem=  1073741824 cpu:               0.1 elap:               0.0
 (Enter /Users/asuyarger/Applications/G16/g16/l103.exe)

 GradGradGradGradGradGradGradGradGradGradGradGradGradGradGradGradGradGrad
 Berny optimization.
 Red2BG is reusing G-inverse.
 Internal  Forces:  Max     0.000000033 RMS     0.000000023
 Search for a local minimum.
 Step number   1 out of a maximum of    2
 All quantities printed in internal units (Hartrees-Bohrs-Radians)
 Second derivative matrix not updated -- analytic derivatives used.
 The second derivative matrix:
                          R1        R2        A1        A2
           R1           1.22574
           R2           0.15293   1.22574
           A1           0.00000  -0.00000   0.22861
           A2           0.00000  -0.00000   0.00000   0.22861
 ITU=  0
     Eigenvalues ---    0.22861   0.22861   1.07281   1.37867
 Angle between quadratic step and forces=  90.00 degrees.
 Linear search not attempted -- first point.
 Iteration  1 RMS(Cart)=  0.00000002 RMS(Int)=  0.00000000
 ITry= 1 IFail=0 DXMaxC= 2.36D-08 DCOld= 1.00D+10 DXMaxT= 3.00D-01 DXLimC= 3.00D+00 Rises=F
 ClnCor:  largest displacement from symmetrization is 1.29D-14 for atom     1.
 Variable       Old X    -DE/DX   Delta X   Delta X   Delta X     New X
                                 (Linear)    (Quad)   (Total)
    R1        2.14720  -0.00000   0.00000  -0.00000  -0.00000   2.14720
    R2        2.14720  -0.00000   0.00000  -0.00000  -0.00000   2.14720
    A1        3.14159  -0.00000   0.00000  -0.00000   0.00000   3.14159
    A2        3.14159  -0.00000   0.00000  -0.00000   0.00000   3.14159
         Item               Value     Threshold  Converged?
 Maximum Force            0.000000     0.000015     YES
 RMS     Force            0.000000     0.000010     YES
 Maximum Displacement     0.000000     0.000060     YES
 RMS     Displacement     0.000000     0.000040     YES
 Predicted change in Energy=-7.679249D-16
 Optimization completed.
    -- Stationary point found.
                           ----------------------------
                           !   Optimized Parameters   !
                           ! (Angstroms and Degrees)  !
 --------------------------                            --------------------------
 ! Name  Definition              Value          Derivative Info.                !
 --------------------------------------------------------------------------------
 ! R1    R(1,2)                  1.1362         -DE/DX =    0.0                 !
 ! R2    R(1,3)                  1.1362         -DE/DX =    0.0                 !
 ! A1    L(2,1,3,-2,-1)        180.0            -DE/DX =    0.0                 !
 ! A2    L(2,1,3,-3,-2)        180.0            -DE/DX =    0.0                 !
 --------------------------------------------------------------------------------
 GradGradGradGradGradGradGradGradGradGradGradGradGradGradGradGradGradGrad

 Leave Link  103 at Fri Sep  6 10:33:45 2024, MaxMem=  1073741824 cpu:               0.0 elap:               0.0
 (Enter /Users/asuyarger/Applications/G16/g16/l9999.exe)
 Dipole is zero, so no output in dipole orientation.

 ----------------------------------------------------------------------

 Electric dipole moment (input orientation):
 (Debye = 10**-18 statcoulomb cm , SI units = C m)
                  (au)            (Debye)         (10**-30 SI)
   Tot        0.000000D+00      0.000000D+00      0.000000D+00
   x          0.000000D+00      0.000000D+00      0.000000D+00
   y          0.000000D+00      0.000000D+00      0.000000D+00
   z          0.000000D+00      0.000000D+00      0.000000D+00

 Dipole polarizability, Alpha (input orientation).
 (esu units = cm**3 , SI units = C**2 m**2 J**-1)
 Alpha(0;0):
               (au)            (10**-24 esu)      (10**-40 SI)
   iso        0.152607D+02      0.226140D+01      0.251614D+01
   aniso      0.112113D+02      0.166134D+01      0.184849D+01
   xx         0.227349D+02      0.336896D+01      0.374847D+01
   yx         0.000000D+00      0.000000D+00      0.000000D+00
   yy         0.115236D+02      0.170762D+01      0.189998D+01
   zx         0.000000D+00      0.000000D+00      0.000000D+00
   zy         0.000000D+00      0.000000D+00      0.000000D+00
   zz         0.115236D+02      0.170762D+01      0.189998D+01

 ----------------------------------------------------------------------
 1\1\GINC-JEFFSMACSTUDIO\Freq\UHF\Aug-CC-pVTZ\C1O2\ROOT\06-Sep-2024\0\\
 #P Geom=AllCheck Guess=TCheck SCRF=Check GenChk UHF/Aug-CC-pVTZ Freq\\
 CO2 uHF 6-311++g(2d,3p) Opt Freq - Full - NBO\\0,1\C,-0.7866184,0.1175
 4069,0.\O,0.3496312021,0.11754069,0.\O,-1.9228680021,0.11754069,0.\\Ve
 rsion=EM64M-G16RevA.03\State=1-SGG\HF=-187.7121391\S2=0.\S2-1=0.\S2A=0
 .\RMSD=1.451e-09\RMSF=1.534e-08\ZeroPoint=0.0127762\Thermal=0.0153133\
 Dipole=0.,0.,0.\DipoleDeriv=3.1069841,0.,0.,0.,0.7350669,0.,0.,0.,0.73
 50669,-1.5534921,0.,0.,0.,-0.3675334,0.,0.,0.,-0.3675334,-1.5534921,0.
 ,0.,0.,-0.3675334,0.,0.,0.,-0.3675334\Polar=22.7348535,0.,11.5235786,0
 .,0.,11.5235786\PolarDeriv=0.,0.,0.,0.,0.,0.,0.,0.,0.,0.,0.,0.,0.,0.,0
 .,0.,0.,0.,10.1423635,0.,3.1694987,0.,0.,3.1694987,0.,2.6106721,0.,0.,
 0.,0.,0.,0.,0.,2.6106721,0.,0.,-10.1423635,0.,-3.1694987,0.,0.,-3.1694
 987,0.,-2.6106721,0.,0.,0.,0.,0.,0.,0.,-2.6106721,0.,0.\HyperPolar=0.,
 0.,0.,0.,0.,0.,0.,0.,0.,0.\Quadrupole=-2.5350968,1.2675484,1.2675484,0
 .,0.,0.\PG=D*H [O(C1),C*(O1.O1)]\NImag=0\\2.14561239,0.,0.19833950,0.,
 0.,0.19833950,-1.07280619,0.,0.,1.22573975,0.,-0.09916975,0.,0.,0.0495
 8487,0.,0.,-0.09916975,0.,0.,0.04958487,-1.07280619,0.,0.,-0.15293356,
 0.,0.,1.22573975,0.,-0.09916975,0.,0.,0.04958488,0.,0.,0.04958487,0.,0
 .,-0.09916975,0.,0.,0.04958488,0.,0.,0.04958487\\0.,0.,0.,0.00000003,0
 .,0.,-0.00000003,0.,0.\\\@


 A MAN SHOULD NEVER BE ASHAMED TO OWN HE HAS BEEN IN THE WRONG
 WHICH IS BUT SAYING IN OTHER WORDS,
 THAT HE IS WISER TODAY THAN HE WAS YESTERDAY.

                          -- JONATHAN SWIFT
 Job cpu time:       0 days  0 hours  0 minutes  7.6 seconds.
 Elapsed time:       0 days  0 hours  0 minutes  7.1 seconds.
 File lengths (MBytes):  RWF=     23 Int=      0 D2E=      0 Chk=      3 Scr=      1
 Normal termination of Gaussian 16 at Fri Sep  6 10:33:45 2024.
