 Entering Gaussian System, Link 0=g16
 Input=/Users/asuyarger/Downloads/CO2_DFT_B3LPY_6311pp2d3p_Opt_Freq_Full_NBO.gjf
 Output=/Users/asuyarger/Downloads/CO2_DFT_B3LPY_6311pp2d3p_Opt_Freq_Full_NBO.log
 Initial command:
 /Users/asuyarger/Applications/G16/g16/l1.exe "/Users/asuyarger/Applications/G16/scratch/Gau-88672.inp" -scrdir="/Users/asuyarger/Applications/G16/scratch/"
 Entering Link 1 = /Users/asuyarger/Applications/G16/g16/l1.exe PID=     88673.
  
 Copyright (c) 1988,1990,1992,1993,1995,1998,2003,2009,2016,
            Gaussian, Inc.  All Rights Reserved.
  
 This is part of the Gaussian(R) 16 program.  It is based on
 the Gaussian(R) 09 system (copyright 2009, Gaussian, Inc.),
 the Gaussian(R) 03 system (copyright 2003, Gaussian, Inc.),
 the Gaussian(R) 98 system (copyright 1998, Gaussian, Inc.),
 the Gaussian(R) 94 system (copyright 1995, Gaussian, Inc.),
 the Gaussian 92(TM) system (copyright 1992, Gaussian, Inc.),
 the Gaussian 90(TM) system (copyright 1990, Gaussian, Inc.),
 the Gaussian 88(TM) system (copyright 1988, Gaussian, Inc.),
 the Gaussian 86(TM) system (copyright 1986, Carnegie Mellon
 University), and the Gaussian 82(TM) system (copyright 1983,
 Carnegie Mellon University). Gaussian is a federally registered
 trademark of Gaussian, Inc.
  
 This software contains proprietary and confidential information,
 including trade secrets, belonging to Gaussian, Inc.
  
 This software is provided under written license and may be
 used, copied, transmitted, or stored only in accord with that
 written license.
  
 The following legend is applicable only to US Government
 contracts under FAR:
  
                    RESTRICTED RIGHTS LEGEND
  
 Use, reproduction and disclosure by the US Government is
 subject to restrictions as set forth in subparagraphs (a)
 and (c) of the Commercial Computer Software - Restricted
 Rights clause in FAR 52.227-19.
  
 Gaussian, Inc.
 340 Quinnipiac St., Bldg. 40, Wallingford CT 06492
  
  
 ---------------------------------------------------------------
 Warning -- This program may not be used in any manner that
 competes with the business of Gaussian, Inc. or will provide
 assistance to any competitor of Gaussian, Inc.  The licensee
 of this program is prohibited from giving any competitor of
 Gaussian, Inc. access to this program.  By using this program,
 the user acknowledges that Gaussian, Inc. is engaged in the
 business of creating and licensing software in the field of
 computational chemistry and represents and warrants to the
 licensee that it is not a competitor of Gaussian, Inc. and that
 it will not use this program in any manner prohibited above.
 ---------------------------------------------------------------
  

 Cite this work as:
 Gaussian 16, Revision A.03,
 M. J. Frisch, G. W. Trucks, H. B. Schlegel, G. E. Scuseria, 
 M. A. Robb, J. R. Cheeseman, G. Scalmani, V. Barone, 
 G. A. Petersson, H. Nakatsuji, X. Li, M. Caricato, A. V. Marenich, 
 J. Bloino, B. G. Janesko, R. Gomperts, B. Mennucci, H. P. Hratchian, 
 J. V. Ortiz, A. F. Izmaylov, J. L. Sonnenberg, D. Williams-Young, 
 F. Ding, F. Lipparini, F. Egidi, J. Goings, B. Peng, A. Petrone, 
 T. Henderson, D. Ranasinghe, V. G. Zakrzewski, J. Gao, N. Rega, 
 G. Zheng, W. Liang, M. Hada, M. Ehara, K. Toyota, R. Fukuda, 
 J. Hasegawa, M. Ishida, T. Nakajima, Y. Honda, O. Kitao, H. Nakai, 
 T. Vreven, K. Throssell, J. A. Montgomery, Jr., J. E. Peralta, 
 F. Ogliaro, M. J. Bearpark, J. J. Heyd, E. N. Brothers, K. N. Kudin, 
 V. N. Staroverov, T. A. Keith, R. Kobayashi, J. Normand, 
 K. Raghavachari, A. P. Rendell, J. C. Burant, S. S. Iyengar, 
 J. Tomasi, M. Cossi, J. M. Millam, M. Klene, C. Adamo, R. Cammi, 
 J. W. Ochterski, R. L. Martin, K. Morokuma, O. Farkas, 
 J. B. Foresman, and D. J. Fox, Gaussian, Inc., Wallingford CT, 2016.
 
 ******************************************
 Gaussian 16:  EM64M-G16RevA.03 25-Dec-2016
                 6-Sep-2024 
 ******************************************
 %nprocshared=8
 Will use up to    8 processors via shared memory.
 %mem=8GB
 %chk=CO2_DFT_B3LPY_6311pp2d3p_Opt_Freq_Full_NBO.chk
 ----------------------------------------------------------------------
 #p opt=tight freq=raman b3lyp/6-311++g(2d,3p) guess=save pop=(hirshfel
 d,full,nbo) geom=connectivity polar
 ----------------------------------------------------------------------
 1/7=10,18=20,19=15,26=3,38=1,57=2/1,3;
 2/9=110,12=2,17=6,18=5,40=1/2;
 3/5=4,6=6,7=1512,11=2,25=1,30=1,71=1,74=-5/1,2,3;
 4//1;
 5/5=2,38=5,98=1/2;
 6/7=3,28=1,40=1,79=1/1,7;
 7//1,2,3,16;
 1/7=10,18=20,19=15,26=3/3(2);
 2/9=110/2;
 99//99;
 2/9=110/2;
 3/5=4,6=6,7=1512,11=2,25=1,30=1,71=1,74=-5/1,2,3;
 4/5=5,16=3,69=1/1;
 5/5=2,38=5,98=1/2;
 7//1,2,3,16;
 1/7=10,18=20,19=15,26=3/3(-5);
 2/9=110/2;
 6/7=3,19=2,28=1,40=1,79=1/1,7;
 99/9=1/99;
 Leave Link    1 at Fri Sep  6 10:18:10 2024, MaxMem=  1073741824 cpu:               0.2 elap:               0.0
 (Enter /Users/asuyarger/Applications/G16/g16/l101.exe)
 ---------------------------------------------
 CO2 DFT 6-311++g(2d,3p) Opt Freq - Full - NBO
 ---------------------------------------------
 Symbolic Z-matrix:
 Charge =  0 Multiplicity = 1
 C                     2.92043   0.67812   0. 
 O                     4.17883   0.67812   0. 
 O                     1.66203   0.67812   0. 
 
 ITRead=  0  0  0
 MicOpt= -1 -1 -1
 NAtoms=      3 NQM=        3 NQMF=       0 NMMI=      0 NMMIF=      0
                NMic=       0 NMicF=      0.
                    Isotopes and Nuclear Properties:
 (Nuclear quadrupole moments (NQMom) in fm**2, nuclear magnetic moments (NMagM)
  in nuclear magnetons)

  Atom         1           2           3
 IAtWgt=          12          16          16
 AtmWgt=  12.0000000  15.9949146  15.9949146
 NucSpn=           0           0           0
 AtZEff=  -0.0000000  -0.0000000  -0.0000000
 NQMom=    0.0000000   0.0000000   0.0000000
 NMagM=    0.0000000   0.0000000   0.0000000
 AtZNuc=   6.0000000   8.0000000   8.0000000
 Leave Link  101 at Fri Sep  6 10:18:10 2024, MaxMem=  1073741824 cpu:               1.1 elap:               0.1
 (Enter /Users/asuyarger/Applications/G16/g16/l103.exe)

 GradGradGradGradGradGradGradGradGradGradGradGradGradGradGradGradGradGrad
 Berny optimization.
 Initialization pass.
                           ----------------------------
                           !    Initial Parameters    !
                           ! (Angstroms and Degrees)  !
 --------------------------                            --------------------------
 ! Name  Definition              Value          Derivative Info.                !
 --------------------------------------------------------------------------------
 ! R1    R(1,2)                  1.2584         estimate D2E/DX2                !
 ! R2    R(1,3)                  1.2584         estimate D2E/DX2                !
 ! A1    L(2,1,3,-2,-1)        180.0            estimate D2E/DX2                !
 ! A2    L(2,1,3,-3,-2)        180.0            estimate D2E/DX2                !
 --------------------------------------------------------------------------------
 Trust Radius=3.00D-01 FncErr=1.00D-07 GrdErr=1.00D-06 EigMax=2.50D+02 EigMin=1.00D-04
 Number of steps in this run=     20 maximum allowed number of steps=    100.
 GradGradGradGradGradGradGradGradGradGradGradGradGradGradGradGradGradGrad

 Leave Link  103 at Fri Sep  6 10:18:11 2024, MaxMem=  1073741824 cpu:               0.1 elap:               0.0
 (Enter /Users/asuyarger/Applications/G16/g16/l202.exe)
                          Input orientation:                          
 ---------------------------------------------------------------------
 Center     Atomic      Atomic             Coordinates (Angstroms)
 Number     Number       Type             X           Y           Z
 ---------------------------------------------------------------------
      1          6           0        2.920434    0.678119    0.000000
      2          8           0        4.178834    0.678119    0.000000
      3          8           0        1.662034    0.678119    0.000000
 ---------------------------------------------------------------------
                    Distance matrix (angstroms):
                    1          2          3
     1  C    0.000000
     2  O    1.258400   0.000000
     3  O    1.258400   2.516800   0.000000
 Stoichiometry    CO2
 Framework group  D*H[O(C),C*(O.O)]
 Deg. of freedom     1
 Full point group                 D*H     NOp   8
 Largest Abelian subgroup         D2H     NOp   8
 Largest concise Abelian subgroup C2      NOp   2
                         Standard orientation:                         
 ---------------------------------------------------------------------
 Center     Atomic      Atomic             Coordinates (Angstroms)
 Number     Number       Type             X           Y           Z
 ---------------------------------------------------------------------
      1          6           0        0.000000    0.000000    0.000000
      2          8           0        0.000000    0.000000    1.258400
      3          8           0        0.000000    0.000000   -1.258400
 ---------------------------------------------------------------------
 Rotational constants (GHZ):           0.0000000           9.9762623           9.9762623
 Leave Link  202 at Fri Sep  6 10:18:11 2024, MaxMem=  1073741824 cpu:               0.0 elap:               0.0
 (Enter /Users/asuyarger/Applications/G16/g16/l301.exe)
 Standard basis: 6-311++G(2d,3p) (5D, 7F)
 Ernie: Thresh=  0.10000D-02 Tol=  0.10000D-05 Strict=F.
 There are    26 symmetry adapted cartesian basis functions of AG  symmetry.
 There are     4 symmetry adapted cartesian basis functions of B1G symmetry.
 There are     8 symmetry adapted cartesian basis functions of B2G symmetry.
 There are     8 symmetry adapted cartesian basis functions of B3G symmetry.
 There are     2 symmetry adapted cartesian basis functions of AU  symmetry.
 There are    19 symmetry adapted cartesian basis functions of B1U symmetry.
 There are    10 symmetry adapted cartesian basis functions of B2U symmetry.
 There are    10 symmetry adapted cartesian basis functions of B3U symmetry.
 There are    22 symmetry adapted basis functions of AG  symmetry.
 There are     4 symmetry adapted basis functions of B1G symmetry.
 There are     8 symmetry adapted basis functions of B2G symmetry.
 There are     8 symmetry adapted basis functions of B3G symmetry.
 There are     2 symmetry adapted basis functions of AU  symmetry.
 There are    17 symmetry adapted basis functions of B1U symmetry.
 There are    10 symmetry adapted basis functions of B2U symmetry.
 There are    10 symmetry adapted basis functions of B3U symmetry.
    81 basis functions,   126 primitive gaussians,    87 cartesian basis functions
    11 alpha electrons       11 beta electrons
       nuclear repulsion energy        53.8260354401 Hartrees.
 IExCor=  402 DFT=T Ex+Corr=B3LYP ExCW=0 ScaHFX=  0.200000
 ScaDFX=  0.800000  0.720000  1.000000  0.810000 ScalE2=  1.000000  1.000000
 IRadAn=      5 IRanWt=     -1 IRanGd=            0 ICorTp=0 IEmpDi=  4
 NAtoms=    3 NActive=    3 NUniq=    2 SFac= 2.25D+00 NAtFMM=   60 NAOKFM=F Big=F
 Integral buffers will be    131072 words long.
 Raffenetti 2 integral format.
 Two-electron integral symmetry is turned on.
 Leave Link  301 at Fri Sep  6 10:18:11 2024, MaxMem=  1073741824 cpu:               0.1 elap:               0.0
 (Enter /Users/asuyarger/Applications/G16/g16/l302.exe)
 NPDir=0 NMtPBC=     1 NCelOv=     1 NCel=       1 NClECP=     1 NCelD=      1
         NCelK=      1 NCelE2=     1 NClLst=     1 CellRange=     0.0.
 One-electron integrals computed using PRISM.
 One-electron integral symmetry used in STVInt
 NBasis=    81 RedAO= T EigKep=  1.14D-03  NBF=    22     4     8     8     2    17    10    10
 NBsUse=    81 1.00D-06 EigRej= -1.00D+00 NBFU=    22     4     8     8     2    17    10    10
 Precomputing XC quadrature grid using
 IXCGrd= 4 IRadAn=           5 IRanWt=          -1 IRanGd=           0 AccXCQ= 0.00D+00.
 Generated NRdTot=       0 NPtTot=           0 NUsed=           0 NTot=          32
 NSgBfM=    87    87    87    87    87 MxSgAt=     3 MxSgA2=     3.
 Leave Link  302 at Fri Sep  6 10:18:11 2024, MaxMem=  1073741824 cpu:               0.6 elap:               0.1
 (Enter /Users/asuyarger/Applications/G16/g16/l303.exe)
 DipDrv:  MaxL=1.
 Leave Link  303 at Fri Sep  6 10:18:11 2024, MaxMem=  1073741824 cpu:               0.1 elap:               0.0
 (Enter /Users/asuyarger/Applications/G16/g16/l401.exe)
 ExpMin= 4.38D-02 ExpMax= 8.59D+03 ExpMxC= 1.30D+03 IAcc=3 IRadAn=         5 AccDes= 0.00D+00
 Harris functional with IExCor=  402 and IRadAn=       5 diagonalized for initial guess.
 HarFok:  IExCor=  402 AccDes= 0.00D+00 IRadAn=         5 IDoV= 1 UseB2=F ITyADJ=14
 ICtDFT=  3500011 ScaDFX=  1.000000  1.000000  1.000000  1.000000
 FoFCou: FMM=F IPFlag=           0 FMFlag=      100000 FMFlg1=           0
         NFxFlg=           0 DoJE=T BraDBF=F KetDBF=T FulRan=T
         wScrn=  0.000000 ICntrl=       500 IOpCl=  0 I1Cent=   200000004 NGrid=           0
         NMat0=    1 NMatS0=      1 NMatT0=    0 NMatD0=    1 NMtDS0=    0 NMtDT0=    0
 Petite list used in FoFCou.
 Harris En= -188.634702518881    
 JPrj=0 DoOrth=F DoCkMO=F.
 Initial guess orbital symmetries:
       Occupied  (SGU) (SGG) (SGG) (SGG) (SGU) (SGG) (SGU) (PIU)
                 (PIU) (PIG) (PIG)
       Virtual   (PIU) (PIU) (SGG) (SGU) (PIU) (PIU) (SGG) (SGG)
                 (PIG) (PIG) (SGU) (PIU) (PIU) (SGU) (SGG) (PIU)
                 (PIU) (SGU) (DLTG) (DLTG) (SGU) (SGG) (PIG) (PIG)
                 (SGG) (PIG) (PIG) (PIU) (PIU) (SGU) (SGG) (DLTU)
                 (DLTU) (DLTG) (DLTG) (PIU) (PIU) (SGU) (SGG) (SGG)
                 (PIG) (PIG) (SGU) (PIU) (PIU) (DLTG) (DLTG) (PIG)
                 (PIG) (SGU) (SGG) (PIG) (PIG) (PIU) (PIU) (SGU)
                 (SGG) (DLTU) (DLTU) (DLTG) (DLTG) (PIU) (PIU)
                 (SGG) (PIG) (PIG) (SGU) (SGG) (SGG) (SGU)
 The electronic state of the initial guess is 1-SGG.
 Leave Link  401 at Fri Sep  6 10:18:11 2024, MaxMem=  1073741824 cpu:               0.7 elap:               0.1
 (Enter /Users/asuyarger/Applications/G16/g16/l502.exe)
 Keep R1 ints in memory in symmetry-blocked form, NReq=12799606.
 FoFCou: FMM=F IPFlag=           0 FMFlag=           0 FMFlg1=           0
         NFxFlg=           0 DoJE=F BraDBF=F KetDBF=F FulRan=T
         wScrn=  0.000000 ICntrl=       600 IOpCl=  0 I1Cent=           0 NGrid=           0
         NMat0=    1 NMatS0=   3321 NMatT0=    0 NMatD0=    1 NMtDS0=    0 NMtDT0=    0
 Petite list used in FoFCou.
 Closed shell SCF:
 Using DIIS extrapolation, IDIIS=  1040.
 NGot=  1073741824 LenX=  1072976188 LenY=  1072968178
 Requested convergence on RMS density matrix=1.00D-08 within 128 cycles.
 Requested convergence on MAX density matrix=1.00D-06.
 Requested convergence on             energy=1.00D-06.
 No special actions if energy rises.

 Cycle   1  Pass 1  IDiag  1:
 E= -188.526486391967    
 DIIS: error= 4.88D-02 at cycle   1 NSaved=   1.
 NSaved= 1 IEnMin= 1 EnMin= -188.526486391967     IErMin= 1 ErrMin= 4.88D-02
 ErrMax= 4.88D-02  0.00D+00 EMaxC= 1.00D-01 BMatC= 1.40D-01 BMatP= 1.40D-01
 IDIUse=3 WtCom= 5.12D-01 WtEn= 4.88D-01
 Coeff-Com:  0.100D+01
 Coeff-En:   0.100D+01
 Coeff:      0.100D+01
 Gap=     0.225 Goal=   None    Shift=    0.000
 GapD=    0.225 DampG=1.000 DampE=0.500 DampFc=0.5000 IDamp=-1.
 Damping current iteration by 5.00D-01
 RMSDP=6.53D-03 MaxDP=1.55D-01              OVMax= 2.88D-01

 Cycle   2  Pass 1  IDiag  1:
 E= -188.507409013413     Delta-E=        0.019077378554 Rises=F Damp=T
 DIIS: error= 3.10D-02 at cycle   2 NSaved=   2.
 NSaved= 2 IEnMin= 1 EnMin= -188.526486391967     IErMin= 2 ErrMin= 3.10D-02
 ErrMax= 3.10D-02  0.00D+00 EMaxC= 1.00D-01 BMatC= 5.16D-02 BMatP= 1.40D-01
 IDIUse=3 WtCom= 6.90D-01 WtEn= 3.10D-01
 Coeff-Com:  0.371D+00 0.629D+00
 Coeff-En:   0.557D+00 0.443D+00
 Coeff:      0.428D+00 0.572D+00
 Gap=     0.322 Goal=   None    Shift=    0.000
 RMSDP=1.19D-03 MaxDP=3.55D-02 DE= 1.91D-02 OVMax= 1.94D-01

 Cycle   3  Pass 1  IDiag  1:
 E= -188.617800944706     Delta-E=       -0.110391931293 Rises=F Damp=F
 DIIS: error= 7.47D-03 at cycle   3 NSaved=   3.
 NSaved= 3 IEnMin= 3 EnMin= -188.617800944706     IErMin= 3 ErrMin= 7.47D-03
 ErrMax= 7.47D-03  0.00D+00 EMaxC= 1.00D-01 BMatC= 2.93D-03 BMatP= 5.16D-02
 IDIUse=3 WtCom= 9.25D-01 WtEn= 7.47D-02
 Coeff-Com:  0.124D+00 0.609D-02 0.870D+00
 Coeff-En:   0.000D+00 0.000D+00 0.100D+01
 Coeff:      0.115D+00 0.564D-02 0.879D+00
 Gap=     0.340 Goal=   None    Shift=    0.000
 RMSDP=3.91D-04 MaxDP=7.81D-03 DE=-1.10D-01 OVMax= 1.24D-02

 Cycle   4  Pass 1  IDiag  1:
 E= -188.619595191591     Delta-E=       -0.001794246885 Rises=F Damp=F
 DIIS: error= 1.88D-03 at cycle   4 NSaved=   4.
 NSaved= 4 IEnMin= 4 EnMin= -188.619595191591     IErMin= 4 ErrMin= 1.88D-03
 ErrMax= 1.88D-03  0.00D+00 EMaxC= 1.00D-01 BMatC= 1.30D-04 BMatP= 2.93D-03
 IDIUse=3 WtCom= 9.81D-01 WtEn= 1.88D-02
 Coeff-Com:  0.186D-01-0.245D-01 0.328D+00 0.678D+00
 Coeff-En:   0.000D+00 0.000D+00 0.000D+00 0.100D+01
 Coeff:      0.183D-01-0.241D-01 0.322D+00 0.684D+00
 Gap=     0.340 Goal=   None    Shift=    0.000
 RMSDP=7.61D-05 MaxDP=1.77D-03 DE=-1.79D-03 OVMax= 2.25D-03

 Cycle   5  Pass 1  IDiag  1:
 E= -188.619683209515     Delta-E=       -0.000088017924 Rises=F Damp=F
 DIIS: error= 1.32D-04 at cycle   5 NSaved=   5.
 NSaved= 5 IEnMin= 5 EnMin= -188.619683209515     IErMin= 5 ErrMin= 1.32D-04
 ErrMax= 1.32D-04  0.00D+00 EMaxC= 1.00D-01 BMatC= 9.56D-07 BMatP= 1.30D-04
 IDIUse=3 WtCom= 9.99D-01 WtEn= 1.32D-03
 Coeff-Com:  0.261D-02-0.704D-02 0.688D-01 0.186D+00 0.750D+00
 Coeff-En:   0.000D+00 0.000D+00 0.000D+00 0.000D+00 0.100D+01
 Coeff:      0.261D-02-0.703D-02 0.687D-01 0.186D+00 0.750D+00
 Gap=     0.340 Goal=   None    Shift=    0.000
 RMSDP=5.25D-06 MaxDP=1.02D-04 DE=-8.80D-05 OVMax= 1.39D-04

 Cycle   6  Pass 1  IDiag  1:
 E= -188.619683748518     Delta-E=       -0.000000539003 Rises=F Damp=F
 DIIS: error= 5.33D-06 at cycle   6 NSaved=   6.
 NSaved= 6 IEnMin= 6 EnMin= -188.619683748518     IErMin= 6 ErrMin= 5.33D-06
 ErrMax= 5.33D-06  0.00D+00 EMaxC= 1.00D-01 BMatC= 9.38D-10 BMatP= 9.56D-07
 IDIUse=1 WtCom= 1.00D+00 WtEn= 0.00D+00
 Coeff-Com: -0.346D-04-0.562D-04 0.379D-03 0.182D-02-0.150D-01 0.101D+01
 Coeff:     -0.346D-04-0.562D-04 0.379D-03 0.182D-02-0.150D-01 0.101D+01
 Gap=     0.340 Goal=   None    Shift=    0.000
 RMSDP=4.41D-07 MaxDP=1.12D-05 DE=-5.39D-07 OVMax= 1.77D-05

 Cycle   7  Pass 1  IDiag  1:
 E= -188.619683749702     Delta-E=       -0.000000001184 Rises=F Damp=F
 DIIS: error= 1.36D-06 at cycle   7 NSaved=   7.
 NSaved= 7 IEnMin= 7 EnMin= -188.619683749702     IErMin= 7 ErrMin= 1.36D-06
 ErrMax= 1.36D-06  0.00D+00 EMaxC= 1.00D-01 BMatC= 6.58D-11 BMatP= 9.38D-10
 IDIUse=1 WtCom= 1.00D+00 WtEn= 0.00D+00
 Coeff-Com: -0.223D-04 0.428D-04-0.313D-03-0.955D-03-0.300D-03-0.679D-01
 Coeff-Com:  0.107D+01
 Coeff:     -0.223D-04 0.428D-04-0.313D-03-0.955D-03-0.300D-03-0.679D-01
 Coeff:      0.107D+01
 Gap=     0.340 Goal=   None    Shift=    0.000
 RMSDP=7.30D-08 MaxDP=2.03D-06 DE=-1.18D-09 OVMax= 2.86D-06

 Cycle   8  Pass 1  IDiag  1:
 E= -188.619683749751     Delta-E=       -0.000000000049 Rises=F Damp=F
 DIIS: error= 1.97D-07 at cycle   8 NSaved=   8.
 NSaved= 8 IEnMin= 8 EnMin= -188.619683749751     IErMin= 8 ErrMin= 1.97D-07
 ErrMax= 1.97D-07  0.00D+00 EMaxC= 1.00D-01 BMatC= 1.43D-12 BMatP= 6.58D-11
 IDIUse=1 WtCom= 1.00D+00 WtEn= 0.00D+00
 Coeff-Com: -0.240D-05 0.512D-05-0.213D-04 0.165D-04 0.226D-03-0.680D-02
 Coeff-Com: -0.223D-01 0.103D+01
 Coeff:     -0.240D-05 0.512D-05-0.213D-04 0.165D-04 0.226D-03-0.680D-02
 Coeff:     -0.223D-01 0.103D+01
 Gap=     0.340 Goal=   None    Shift=    0.000
 RMSDP=9.84D-09 MaxDP=3.87D-07 DE=-4.91D-11 OVMax= 3.10D-07

 SCF Done:  E(RB3LYP) =  -188.619683750     A.U. after    8 cycles
            NFock=  8  Conv=0.98D-08     -V/T= 2.0069
 KE= 1.873339433108D+02 PE=-5.512273134154D+02 EE= 1.214476509148D+02
 Leave Link  502 at Fri Sep  6 10:18:11 2024, MaxMem=  1073741824 cpu:               1.7 elap:               0.3
 (Enter /Users/asuyarger/Applications/G16/g16/l601.exe)
 Copying SCF densities to generalized density rwf, IOpCl= 0 IROHF=0.

 **********************************************************************

            Population analysis using the SCF density.

 **********************************************************************

 Orbital symmetries:
       Occupied  (SGU) (SGG) (SGG) (SGG) (SGU) (SGG) (SGU) (PIU)
                 (PIU) (PIG) (PIG)
       Virtual   (PIU) (PIU) (SGG) (SGU) (PIU) (PIU) (SGG) (SGG)
                 (PIG) (PIG) (SGU) (PIU) (PIU) (SGU) (SGG) (PIU)
                 (PIU) (DLTG) (DLTG) (SGU) (SGU) (SGG) (PIG) (PIG)
                 (SGG) (PIG) (PIG) (PIU) (PIU) (SGU) (SGG) (DLTU)
                 (DLTU) (DLTG) (DLTG) (PIU) (PIU) (SGU) (SGG) (SGG)
                 (PIG) (PIG) (SGU) (PIU) (PIU) (DLTG) (DLTG) (PIG)
                 (PIG) (SGU) (SGG) (PIG) (PIG) (PIU) (PIU) (SGU)
                 (SGG) (DLTU) (DLTU) (DLTG) (DLTG) (PIU) (PIU)
                 (SGG) (PIG) (PIG) (SGU) (SGG) (SGG) (SGU)
 The electronic state is 1-SGG.
 Alpha  occ. eigenvalues --  -19.23548 -19.23545 -10.40731  -1.13303  -1.09433
 Alpha  occ. eigenvalues --   -0.59333  -0.53019  -0.49822  -0.49822  -0.38258
 Alpha  occ. eigenvalues --   -0.38258
 Alpha virt. eigenvalues --   -0.04212  -0.04212  -0.03693   0.05091   0.05491
 Alpha virt. eigenvalues --    0.05491   0.09781   0.15867   0.18434   0.18434
 Alpha virt. eigenvalues --    0.22904   0.25603   0.25603   0.28088   0.29118
 Alpha virt. eigenvalues --    0.52042   0.52042   0.57331   0.57331   0.63001
 Alpha virt. eigenvalues --    0.68583   0.69027   0.87774   0.87774   0.91587
 Alpha virt. eigenvalues --    0.98013   0.98013   1.09347   1.09347   1.10948
 Alpha virt. eigenvalues --    1.28931   1.40418   1.40418   1.59290   1.59290
 Alpha virt. eigenvalues --    1.75489   1.75489   1.75589   1.93220   2.32329
 Alpha virt. eigenvalues --    2.34568   2.34568   2.61580   2.68623   2.68623
 Alpha virt. eigenvalues --    3.11077   3.11077   3.25021   3.25021   3.41734
 Alpha virt. eigenvalues --    3.70836   4.91799   4.91799   4.93506   4.93506
 Alpha virt. eigenvalues --    5.53837   5.72516   6.61501   6.61501   6.69765
 Alpha virt. eigenvalues --    6.69765   6.83312   6.83312   7.14165   7.16095
 Alpha virt. eigenvalues --    7.16095   7.17784  23.91176  49.79343  49.90319
     Molecular Orbital Coefficients:
                           1         2         3         4         5
                       (SGU)--O  (SGG)--O  (SGG)--O  (SGG)--O  (SGU)--O
     Eigenvalues --   -19.23548 -19.23545 -10.40731  -1.13303  -1.09433
   1 1   C  1S          0.00000  -0.00001   0.56317  -0.07778   0.00000
   2        2S          0.00000   0.00005   0.46313  -0.11898   0.00000
   3        2PX         0.00000   0.00000   0.00000   0.00000   0.00000
   4        2PY         0.00000   0.00000   0.00000   0.00000   0.00000
   5        2PZ        -0.00005   0.00000   0.00000   0.00000   0.14229
   6        3S          0.00000   0.00167   0.01905   0.31149   0.00000
   7        3PX         0.00000   0.00000   0.00000   0.00000   0.00000
   8        3PY         0.00000   0.00000   0.00000   0.00000   0.00000
   9        3PZ         0.00377   0.00000   0.00000   0.00000   0.15413
  10        4S          0.00000  -0.00685   0.01458   0.17699   0.00000
  11        4PX         0.00000   0.00000   0.00000   0.00000   0.00000
  12        4PY         0.00000   0.00000   0.00000   0.00000   0.00000
  13        4PZ         0.01974   0.00000   0.00000   0.00000  -0.09677
  14        5S          0.00000  -0.00312  -0.00170   0.02426   0.00000
  15        5PX         0.00000   0.00000   0.00000   0.00000   0.00000
  16        5PY         0.00000   0.00000   0.00000   0.00000   0.00000
  17        5PZ         0.00065   0.00000   0.00000   0.00000   0.00070
  18        6D 0        0.00000  -0.00015   0.00182   0.02598   0.00000
  19        6D+1        0.00000   0.00000   0.00000   0.00000   0.00000
  20        6D-1        0.00000   0.00000   0.00000   0.00000   0.00000
  21        6D+2        0.00000  -0.00000  -0.00000  -0.00000   0.00000
  22        6D-2        0.00000   0.00000   0.00000   0.00000   0.00000
  23        7D 0        0.00000  -0.00270   0.00774   0.04994   0.00000
  24        7D+1        0.00000   0.00000   0.00000   0.00000   0.00000
  25        7D-1        0.00000   0.00000   0.00000   0.00000   0.00000
  26        7D+2        0.00000   0.00000   0.00000   0.00000   0.00000
  27        7D-2        0.00000   0.00000   0.00000   0.00000   0.00000
  28 2   O  1S          0.38986   0.38986  -0.00006  -0.07473  -0.08172
  29        2S          0.33213   0.33221  -0.00004  -0.11951  -0.13087
  30        2PX         0.00000   0.00000   0.00000   0.00000   0.00000
  31        2PY         0.00000   0.00000   0.00000   0.00000   0.00000
  32        2PZ        -0.00106  -0.00090  -0.00071  -0.05298  -0.05142
  33        3S          0.01060   0.00934   0.00075   0.34800   0.37824
  34        3PX         0.00000   0.00000   0.00000   0.00000   0.00000
  35        3PY         0.00000   0.00000   0.00000   0.00000   0.00000
  36        3PZ         0.00018  -0.00044   0.00211  -0.07502  -0.08059
  37        4S         -0.01665  -0.00254  -0.01423   0.19030   0.32105
  38        4PX         0.00000   0.00000   0.00000   0.00000   0.00000
  39        4PY         0.00000   0.00000   0.00000   0.00000   0.00000
  40        4PZ         0.00607  -0.00037   0.00765  -0.01595  -0.05802
  41        5S         -0.00812   0.00458   0.00053  -0.03897   0.04761
  42        5PX         0.00000   0.00000   0.00000   0.00000   0.00000
  43        5PY         0.00000   0.00000   0.00000   0.00000   0.00000
  44        5PZ         0.00259  -0.00092  -0.00079   0.01133  -0.01734
  45        6D 0        0.00025   0.00018   0.00029   0.00525   0.00546
  46        6D+1        0.00000   0.00000   0.00000   0.00000   0.00000
  47        6D-1        0.00000   0.00000   0.00000   0.00000   0.00000
  48        6D+2       -0.00000   0.00000   0.00000  -0.00000   0.00000
  49        6D-2        0.00000   0.00000   0.00000   0.00000   0.00000
  50        7D 0       -0.00110  -0.00020  -0.00268   0.00808   0.01458
  51        7D+1        0.00000   0.00000   0.00000   0.00000   0.00000
  52        7D-1        0.00000   0.00000   0.00000   0.00000   0.00000
  53        7D+2        0.00000   0.00000  -0.00000   0.00000   0.00000
  54        7D-2        0.00000   0.00000   0.00000   0.00000   0.00000
  55 3   O  1S         -0.38986   0.38986  -0.00006  -0.07473   0.08172
  56        2S         -0.33213   0.33221  -0.00004  -0.11951   0.13087
  57        2PX         0.00000   0.00000   0.00000   0.00000   0.00000
  58        2PY         0.00000   0.00000   0.00000   0.00000   0.00000
  59        2PZ        -0.00106   0.00090   0.00071   0.05298  -0.05142
  60        3S         -0.01060   0.00934   0.00075   0.34800  -0.37824
  61        3PX         0.00000   0.00000   0.00000   0.00000   0.00000
  62        3PY         0.00000   0.00000   0.00000   0.00000   0.00000
  63        3PZ         0.00018   0.00044  -0.00211   0.07502  -0.08059
  64        4S          0.01665  -0.00254  -0.01423   0.19030  -0.32105
  65        4PX         0.00000   0.00000   0.00000   0.00000   0.00000
  66        4PY         0.00000   0.00000   0.00000   0.00000   0.00000
  67        4PZ         0.00607   0.00037  -0.00765   0.01595  -0.05802
  68        5S          0.00812   0.00458   0.00053  -0.03897  -0.04761
  69        5PX         0.00000   0.00000   0.00000   0.00000   0.00000
  70        5PY         0.00000   0.00000   0.00000   0.00000   0.00000
  71        5PZ         0.00259   0.00092   0.00079  -0.01133  -0.01734
  72        6D 0       -0.00025   0.00018   0.00029   0.00525  -0.00546
  73        6D+1        0.00000   0.00000   0.00000   0.00000   0.00000
  74        6D-1        0.00000   0.00000   0.00000   0.00000   0.00000
  75        6D+2        0.00000   0.00000   0.00000  -0.00000  -0.00000
  76        6D-2        0.00000   0.00000   0.00000   0.00000   0.00000
  77        7D 0        0.00110  -0.00020  -0.00268   0.00808  -0.01458
  78        7D+1        0.00000   0.00000   0.00000   0.00000   0.00000
  79        7D-1        0.00000   0.00000   0.00000   0.00000   0.00000
  80        7D+2       -0.00000   0.00000  -0.00000   0.00000  -0.00000
  81        7D-2        0.00000   0.00000   0.00000   0.00000   0.00000
                           6         7         8         9        10
                       (SGG)--O  (SGU)--O  (PIU)--O  (PIU)--O  (PIG)--O
     Eigenvalues --    -0.59333  -0.53019  -0.49822  -0.49822  -0.38258
   1 1   C  1S         -0.08189   0.00000   0.00000   0.00000   0.00000
   2        2S         -0.13012   0.00000   0.00000   0.00000   0.00000
   3        2PX         0.00000   0.00000   0.18009   0.00000   0.00000
   4        2PY         0.00000   0.00000   0.00000   0.18009   0.00000
   5        2PZ         0.00000  -0.17028   0.00000   0.00000   0.00000
   6        3S          0.39603   0.00000   0.00000   0.00000   0.00000
   7        3PX         0.00000   0.00000   0.26377   0.00000   0.00000
   8        3PY         0.00000   0.00000   0.00000   0.26377   0.00000
   9        3PZ         0.00000  -0.23510   0.00000   0.00000   0.00000
  10        4S          0.30664   0.00000   0.00000   0.00000   0.00000
  11        4PX         0.00000   0.00000   0.14825   0.00000   0.00000
  12        4PY         0.00000   0.00000   0.00000   0.14825   0.00000
  13        4PZ         0.00000  -0.03589   0.00000   0.00000   0.00000
  14        5S          0.00362   0.00000   0.00000   0.00000   0.00000
  15        5PX         0.00000   0.00000   0.02824   0.00000   0.00000
  16        5PY         0.00000   0.00000   0.00000   0.02824   0.00000
  17        5PZ         0.00000   0.01841   0.00000   0.00000   0.00000
  18        6D 0        0.00943   0.00000   0.00000   0.00000   0.00000
  19        6D+1        0.00000   0.00000   0.00000   0.00000   0.02923
  20        6D-1        0.00000   0.00000   0.00000   0.00000   0.00000
  21        6D+2        0.00000   0.00000   0.00000   0.00000   0.00000
  22        6D-2        0.00000   0.00000   0.00000   0.00000   0.00000
  23        7D 0        0.01760   0.00000   0.00000   0.00000   0.00000
  24        7D+1        0.00000   0.00000   0.00000   0.00000   0.06491
  25        7D-1        0.00000   0.00000   0.00000   0.00000   0.00000
  26        7D+2       -0.00000   0.00000   0.00000   0.00000   0.00000
  27        7D-2        0.00000   0.00000   0.00000   0.00000   0.00000
  28 2   O  1S          0.05135  -0.03666   0.00000   0.00000   0.00000
  29        2S          0.08350  -0.05950   0.00000   0.00000   0.00000
  30        2PX         0.00000   0.00000   0.16436   0.00000   0.21927
  31        2PY         0.00000   0.00000   0.00000   0.16436   0.00000
  32        2PZ        -0.14481   0.18343   0.00000   0.00000   0.00000
  33        3S         -0.25645   0.18218   0.00000   0.00000   0.00000
  34        3PX         0.00000   0.00000   0.24147   0.00000   0.31975
  35        3PY         0.00000   0.00000   0.00000   0.24147   0.00000
  36        3PZ        -0.20249   0.26192   0.00000   0.00000   0.00000
  37        4S         -0.30900   0.22485   0.00000   0.00000   0.00000
  38        4PX         0.00000   0.00000   0.19700   0.00000   0.26486
  39        4PY         0.00000   0.00000   0.00000   0.19700   0.00000
  40        4PZ        -0.11892   0.17309   0.00000   0.00000   0.00000
  41        5S         -0.05415   0.01973   0.00000   0.00000   0.00000
  42        5PX         0.00000   0.00000  -0.00804   0.00000   0.04909
  43        5PY         0.00000   0.00000   0.00000  -0.00804   0.00000
  44        5PZ         0.00331   0.01136   0.00000   0.00000   0.00000
  45        6D 0        0.00622  -0.00832   0.00000   0.00000   0.00000
  46        6D+1        0.00000   0.00000  -0.00547   0.00000  -0.00479
  47        6D-1        0.00000   0.00000   0.00000  -0.00547   0.00000
  48        6D+2       -0.00000  -0.00000   0.00000   0.00000   0.00000
  49        6D-2        0.00000   0.00000   0.00000   0.00000   0.00000
  50        7D 0        0.00948  -0.01394   0.00000   0.00000   0.00000
  51        7D+1        0.00000   0.00000  -0.02809   0.00000  -0.01550
  52        7D-1        0.00000   0.00000   0.00000  -0.02809   0.00000
  53        7D+2        0.00000  -0.00000   0.00000   0.00000   0.00000
  54        7D-2        0.00000   0.00000   0.00000   0.00000   0.00000
  55 3   O  1S          0.05135   0.03666   0.00000   0.00000   0.00000
  56        2S          0.08350   0.05950   0.00000   0.00000   0.00000
  57        2PX         0.00000   0.00000   0.16436   0.00000  -0.21927
  58        2PY         0.00000   0.00000   0.00000   0.16436   0.00000
  59        2PZ         0.14481   0.18343   0.00000   0.00000   0.00000
  60        3S         -0.25645  -0.18218   0.00000   0.00000   0.00000
  61        3PX         0.00000   0.00000   0.24147   0.00000  -0.31975
  62        3PY         0.00000   0.00000   0.00000   0.24147   0.00000
  63        3PZ         0.20249   0.26192   0.00000   0.00000   0.00000
  64        4S         -0.30900  -0.22485   0.00000   0.00000   0.00000
  65        4PX         0.00000   0.00000   0.19700   0.00000  -0.26486
  66        4PY         0.00000   0.00000   0.00000   0.19700   0.00000
  67        4PZ         0.11892   0.17309   0.00000   0.00000   0.00000
  68        5S         -0.05415  -0.01973   0.00000   0.00000   0.00000
  69        5PX         0.00000   0.00000  -0.00804   0.00000  -0.04909
  70        5PY         0.00000   0.00000   0.00000  -0.00804   0.00000
  71        5PZ        -0.00331   0.01136   0.00000   0.00000   0.00000
  72        6D 0        0.00622   0.00832   0.00000   0.00000   0.00000
  73        6D+1        0.00000   0.00000   0.00547   0.00000  -0.00479
  74        6D-1        0.00000   0.00000   0.00000   0.00547   0.00000
  75        6D+2       -0.00000   0.00000   0.00000   0.00000   0.00000
  76        6D-2        0.00000   0.00000   0.00000   0.00000   0.00000
  77        7D 0        0.00948   0.01394   0.00000   0.00000   0.00000
  78        7D+1        0.00000   0.00000   0.02809   0.00000  -0.01550
  79        7D-1        0.00000   0.00000   0.00000   0.02809   0.00000
  80        7D+2        0.00000   0.00000   0.00000   0.00000   0.00000
  81        7D-2        0.00000   0.00000   0.00000   0.00000   0.00000
                          11        12        13        14        15
                       (PIG)--O  (PIU)--V  (PIU)--V  (SGG)--V  (SGU)--V
     Eigenvalues --    -0.38258  -0.04212  -0.04212  -0.03693   0.05091
   1 1   C  1S          0.00000   0.00000   0.00000  -0.03261   0.00000
   2        2S          0.00000   0.00000   0.00000  -0.05316   0.00000
   3        2PX         0.00000   0.00000   0.27050   0.00000   0.00000
   4        2PY         0.00000   0.27050   0.00000   0.00000   0.00000
   5        2PZ         0.00000   0.00000   0.00000   0.00000   0.01935
   6        3S          0.00000   0.00000   0.00000   0.12492   0.00000
   7        3PX         0.00000   0.00000   0.41619   0.00000   0.00000
   8        3PY         0.00000   0.41619   0.00000   0.00000   0.00000
   9        3PZ         0.00000   0.00000   0.00000   0.00000   0.07319
  10        4S          0.00000   0.00000   0.00000   0.70162   0.00000
  11        4PX         0.00000   0.00000   0.59373   0.00000   0.00000
  12        4PY         0.00000   0.59373   0.00000   0.00000   0.00000
  13        4PZ         0.00000   0.00000   0.00000   0.00000   1.03011
  14        5S          0.00000   0.00000   0.00000   1.42651   0.00000
  15        5PX         0.00000   0.00000   0.19123   0.00000   0.00000
  16        5PY         0.00000   0.19123   0.00000   0.00000   0.00000
  17        5PZ         0.00000   0.00000   0.00000   0.00000   2.23446
  18        6D 0        0.00000   0.00000   0.00000  -0.03825   0.00000
  19        6D+1        0.00000   0.00000   0.00000   0.00000   0.00000
  20        6D-1        0.02923   0.00000   0.00000   0.00000   0.00000
  21        6D+2        0.00000   0.00000   0.00000  -0.00000   0.00000
  22        6D-2        0.00000   0.00000   0.00000   0.00000   0.00000
  23        7D 0        0.00000   0.00000   0.00000  -0.08081   0.00000
  24        7D+1        0.00000   0.00000   0.00000   0.00000   0.00000
  25        7D-1        0.06491   0.00000   0.00000   0.00000   0.00000
  26        7D+2        0.00000   0.00000   0.00000   0.00000   0.00000
  27        7D-2        0.00000   0.00000   0.00000   0.00000   0.00000
  28 2   O  1S          0.00000   0.00000   0.00000   0.03134   0.01659
  29        2S          0.00000   0.00000   0.00000   0.05239   0.02738
  30        2PX         0.00000   0.00000  -0.16791   0.00000   0.00000
  31        2PY         0.21927  -0.16791   0.00000   0.00000   0.00000
  32        2PZ         0.00000   0.00000   0.00000   0.09683  -0.02348
  33        3S          0.00000   0.00000   0.00000  -0.18217  -0.08473
  34        3PX         0.00000   0.00000  -0.24322   0.00000   0.00000
  35        3PY         0.31975  -0.24322   0.00000   0.00000   0.00000
  36        3PZ         0.00000   0.00000   0.00000   0.14737  -0.04502
  37        4S          0.00000   0.00000   0.00000  -0.25121  -0.36441
  38        4PX         0.00000   0.00000  -0.29536   0.00000   0.00000
  39        4PY         0.26486  -0.29536   0.00000   0.00000   0.00000
  40        4PZ         0.00000   0.00000   0.00000   0.15163   0.17516
  41        5S          0.00000   0.00000   0.00000  -0.46750  -2.13538
  42        5PX         0.00000   0.00000  -0.19770   0.00000   0.00000
  43        5PY         0.04909  -0.19770   0.00000   0.00000   0.00000
  44        5PZ         0.00000   0.00000   0.00000   0.15946   0.34888
  45        6D 0        0.00000   0.00000   0.00000  -0.00207   0.00225
  46        6D+1        0.00000   0.00000  -0.00476   0.00000   0.00000
  47        6D-1       -0.00479  -0.00476   0.00000   0.00000   0.00000
  48        6D+2        0.00000   0.00000   0.00000  -0.00000   0.00000
  49        6D-2        0.00000   0.00000   0.00000   0.00000   0.00000
  50        7D 0        0.00000   0.00000   0.00000  -0.00632  -0.01476
  51        7D+1        0.00000   0.00000  -0.01337   0.00000   0.00000
  52        7D-1       -0.01550  -0.01337   0.00000   0.00000   0.00000
  53        7D+2        0.00000   0.00000   0.00000   0.00000   0.00000
  54        7D-2        0.00000   0.00000   0.00000   0.00000   0.00000
  55 3   O  1S          0.00000   0.00000   0.00000   0.03134  -0.01659
  56        2S          0.00000   0.00000   0.00000   0.05239  -0.02738
  57        2PX         0.00000   0.00000  -0.16791   0.00000   0.00000
  58        2PY        -0.21927  -0.16791   0.00000   0.00000   0.00000
  59        2PZ         0.00000   0.00000   0.00000  -0.09683  -0.02348
  60        3S          0.00000   0.00000   0.00000  -0.18217   0.08473
  61        3PX         0.00000   0.00000  -0.24322   0.00000   0.00000
  62        3PY        -0.31975  -0.24322   0.00000   0.00000   0.00000
  63        3PZ         0.00000   0.00000   0.00000  -0.14737  -0.04502
  64        4S          0.00000   0.00000   0.00000  -0.25121   0.36441
  65        4PX         0.00000   0.00000  -0.29536   0.00000   0.00000
  66        4PY        -0.26486  -0.29536   0.00000   0.00000   0.00000
  67        4PZ         0.00000   0.00000   0.00000  -0.15163   0.17516
  68        5S          0.00000   0.00000   0.00000  -0.46750   2.13538
  69        5PX         0.00000   0.00000  -0.19770   0.00000   0.00000
  70        5PY        -0.04909  -0.19770   0.00000   0.00000   0.00000
  71        5PZ         0.00000   0.00000   0.00000  -0.15946   0.34888
  72        6D 0        0.00000   0.00000   0.00000  -0.00207  -0.00225
  73        6D+1        0.00000   0.00000   0.00476   0.00000   0.00000
  74        6D-1       -0.00479   0.00476   0.00000   0.00000   0.00000
  75        6D+2        0.00000   0.00000   0.00000  -0.00000  -0.00000
  76        6D-2        0.00000   0.00000   0.00000   0.00000   0.00000
  77        7D 0        0.00000   0.00000   0.00000  -0.00632   0.01476
  78        7D+1        0.00000   0.00000   0.01337   0.00000   0.00000
  79        7D-1       -0.01550   0.01337   0.00000   0.00000   0.00000
  80        7D+2        0.00000   0.00000   0.00000   0.00000  -0.00000
  81        7D-2        0.00000   0.00000   0.00000   0.00000   0.00000
                          16        17        18        19        20
                       (PIU)--V  (PIU)--V  (SGG)--V  (SGG)--V  (PIG)--V
     Eigenvalues --     0.05491   0.05491   0.09781   0.15867   0.18434
   1 1   C  1S          0.00000   0.00000   0.06110  -0.03576   0.00000
   2        2S          0.00000   0.00000   0.10498  -0.05638   0.00000
   3        2PX        -0.08777   0.00000   0.00000   0.00000   0.00000
   4        2PY         0.00000  -0.08777   0.00000   0.00000   0.00000
   5        2PZ         0.00000   0.00000   0.00000   0.00000   0.00000
   6        3S          0.00000   0.00000  -0.37900   0.06169   0.00000
   7        3PX        -0.12141   0.00000   0.00000   0.00000   0.00000
   8        3PY         0.00000  -0.12141   0.00000   0.00000   0.00000
   9        3PZ         0.00000   0.00000   0.00000   0.00000   0.00000
  10        4S          0.00000   0.00000  -0.32854   2.70268   0.00000
  11        4PX        -0.21709   0.00000   0.00000   0.00000   0.00000
  12        4PY         0.00000  -0.21709   0.00000   0.00000   0.00000
  13        4PZ         0.00000   0.00000   0.00000   0.00000   0.00000
  14        5S          0.00000   0.00000   2.64774  -0.03911   0.00000
  15        5PX         1.40516   0.00000   0.00000   0.00000   0.00000
  16        5PY         0.00000   1.40516   0.00000   0.00000   0.00000
  17        5PZ         0.00000   0.00000   0.00000   0.00000   0.00000
  18        6D 0        0.00000   0.00000   0.04540   0.00001   0.00000
  19        6D+1        0.00000   0.00000   0.00000   0.00000  -0.00756
  20        6D-1        0.00000   0.00000   0.00000   0.00000   0.00000
  21        6D+2        0.00000   0.00000   0.00000  -0.00000   0.00000
  22        6D-2        0.00000   0.00000   0.00000   0.00000   0.00000
  23        7D 0        0.00000   0.00000   0.05501   0.18284   0.00000
  24        7D+1        0.00000   0.00000   0.00000   0.00000   0.02374
  25        7D-1        0.00000   0.00000   0.00000   0.00000   0.00000
  26        7D+2        0.00000   0.00000   0.00000  -0.00000   0.00000
  27        7D-2        0.00000   0.00000   0.00000   0.00000   0.00000
  28 2   O  1S          0.00000   0.00000  -0.02083   0.01386   0.00000
  29        2S          0.00000   0.00000  -0.03396   0.02270   0.00000
  30        2PX        -0.02114   0.00000   0.00000   0.00000  -0.08351
  31        2PY         0.00000  -0.02114   0.00000   0.00000   0.00000
  32        2PZ         0.00000   0.00000  -0.14529  -0.01914   0.00000
  33        3S          0.00000   0.00000   0.09382  -0.06359   0.00000
  34        3PX        -0.04412   0.00000   0.00000   0.00000  -0.08332
  35        3PY         0.00000  -0.04412   0.00000   0.00000   0.00000
  36        3PZ         0.00000   0.00000  -0.22090   0.01476   0.00000
  37        4S          0.00000   0.00000   0.46476  -0.57463   0.00000
  38        4PX         0.02294   0.00000   0.00000   0.00000  -0.36322
  39        4PY         0.00000   0.02294   0.00000   0.00000   0.00000
  40        4PZ         0.00000   0.00000  -0.27510   0.08252   0.00000
  41        5S          0.00000   0.00000  -1.48979  -0.40911   0.00000
  42        5PX        -0.22390   0.00000   0.00000   0.00000   1.12262
  43        5PY         0.00000  -0.22390   0.00000   0.00000   0.00000
  44        5PZ         0.00000   0.00000   0.43052   1.20359   0.00000
  45        6D 0        0.00000   0.00000   0.00110   0.00527   0.00000
  46        6D+1        0.00221   0.00000   0.00000   0.00000   0.00158
  47        6D-1        0.00000   0.00221   0.00000   0.00000   0.00000
  48        6D+2        0.00000   0.00000  -0.00000   0.00000   0.00000
  49        6D-2        0.00000   0.00000   0.00000   0.00000   0.00000
  50        7D 0        0.00000   0.00000  -0.00516   0.00335   0.00000
  51        7D+1        0.01059   0.00000   0.00000   0.00000   0.02384
  52        7D-1        0.00000   0.01059   0.00000   0.00000   0.00000
  53        7D+2        0.00000   0.00000  -0.00000  -0.00000   0.00000
  54        7D-2        0.00000   0.00000   0.00000   0.00000   0.00000
  55 3   O  1S          0.00000   0.00000  -0.02083   0.01386   0.00000
  56        2S          0.00000   0.00000  -0.03396   0.02270   0.00000
  57        2PX        -0.02114   0.00000   0.00000   0.00000   0.08351
  58        2PY         0.00000  -0.02114   0.00000   0.00000   0.00000
  59        2PZ         0.00000   0.00000   0.14529   0.01914   0.00000
  60        3S          0.00000   0.00000   0.09382  -0.06359   0.00000
  61        3PX        -0.04412   0.00000   0.00000   0.00000   0.08332
  62        3PY         0.00000  -0.04412   0.00000   0.00000   0.00000
  63        3PZ         0.00000   0.00000   0.22090  -0.01476   0.00000
  64        4S          0.00000   0.00000   0.46476  -0.57463   0.00000
  65        4PX         0.02294   0.00000   0.00000   0.00000   0.36322
  66        4PY         0.00000   0.02294   0.00000   0.00000   0.00000
  67        4PZ         0.00000   0.00000   0.27510  -0.08252   0.00000
  68        5S          0.00000   0.00000  -1.48979  -0.40911   0.00000
  69        5PX        -0.22390   0.00000   0.00000   0.00000  -1.12262
  70        5PY         0.00000  -0.22390   0.00000   0.00000   0.00000
  71        5PZ         0.00000   0.00000  -0.43052  -1.20359   0.00000
  72        6D 0        0.00000   0.00000   0.00110   0.00527   0.00000
  73        6D+1       -0.00221   0.00000   0.00000   0.00000   0.00158
  74        6D-1        0.00000  -0.00221   0.00000   0.00000   0.00000
  75        6D+2        0.00000   0.00000  -0.00000   0.00000   0.00000
  76        6D-2        0.00000   0.00000   0.00000   0.00000   0.00000
  77        7D 0        0.00000   0.00000  -0.00516   0.00335   0.00000
  78        7D+1       -0.01059   0.00000   0.00000   0.00000   0.02384
  79        7D-1        0.00000  -0.01059   0.00000   0.00000   0.00000
  80        7D+2        0.00000   0.00000  -0.00000  -0.00000   0.00000
  81        7D-2        0.00000   0.00000   0.00000   0.00000   0.00000
                          21        22        23        24        25
                       (PIG)--V  (SGU)--V  (PIU)--V  (PIU)--V  (SGU)--V
     Eigenvalues --     0.18434   0.22904   0.25603   0.25603   0.28088
   1 1   C  1S          0.00000   0.00000   0.00000   0.00000   0.00000
   2        2S          0.00000   0.00000   0.00000   0.00000   0.00000
   3        2PX         0.00000   0.00000   0.03893   0.00000   0.00000
   4        2PY         0.00000   0.00000   0.00000   0.03893   0.00000
   5        2PZ         0.00000  -0.07659   0.00000   0.00000   0.02711
   6        3S          0.00000   0.00000   0.00000   0.00000   0.00000
   7        3PX         0.00000   0.00000  -0.00239   0.00000   0.00000
   8        3PY         0.00000   0.00000   0.00000  -0.00239   0.00000
   9        3PZ         0.00000  -0.03573   0.00000   0.00000  -0.12478
  10        4S          0.00000   0.00000   0.00000   0.00000   0.00000
  11        4PX         0.00000   0.00000   0.45236   0.00000   0.00000
  12        4PY         0.00000   0.00000   0.00000   0.45236   0.00000
  13        4PZ         0.00000  -1.95999   0.00000   0.00000  -2.74748
  14        5S          0.00000   0.00000   0.00000   0.00000   0.00000
  15        5PX         0.00000   0.00000   2.10912   0.00000   0.00000
  16        5PY         0.00000   0.00000   0.00000   2.10912   0.00000
  17        5PZ         0.00000   0.90356   0.00000   0.00000  -3.39430
  18        6D 0        0.00000   0.00000   0.00000   0.00000   0.00000
  19        6D+1        0.00000   0.00000   0.00000   0.00000   0.00000
  20        6D-1       -0.00756   0.00000   0.00000   0.00000   0.00000
  21        6D+2        0.00000   0.00000   0.00000   0.00000   0.00000
  22        6D-2        0.00000   0.00000   0.00000   0.00000   0.00000
  23        7D 0        0.00000   0.00000   0.00000   0.00000   0.00000
  24        7D+1        0.00000   0.00000   0.00000   0.00000   0.00000
  25        7D-1        0.02374   0.00000   0.00000   0.00000   0.00000
  26        7D+2        0.00000   0.00000   0.00000   0.00000   0.00000
  27        7D-2        0.00000   0.00000   0.00000   0.00000   0.00000
  28 2   O  1S          0.00000   0.00012   0.00000   0.00000   0.03060
  29        2S          0.00000   0.00139   0.00000   0.00000   0.05208
  30        2PX         0.00000   0.00000   0.08367   0.00000   0.00000
  31        2PY        -0.08351   0.00000   0.00000   0.08367   0.00000
  32        2PZ         0.00000   0.01137   0.00000   0.00000  -0.03698
  33        3S          0.00000  -0.03057   0.00000   0.00000  -0.21463
  34        3PX         0.00000   0.00000   0.08500   0.00000   0.00000
  35        3PY        -0.08332   0.00000   0.00000   0.08500   0.00000
  36        3PZ         0.00000   0.02163   0.00000   0.00000   0.00632
  37        4S          0.00000   0.36024   0.00000   0.00000  -0.01313
  38        4PX         0.00000   0.00000   0.36059   0.00000   0.00000
  39        4PY        -0.36322   0.00000   0.00000   0.36059   0.00000
  40        4PZ         0.00000  -0.11904   0.00000   0.00000  -0.75333
  41        5S          0.00000   2.74964   0.00000   0.00000   6.18209
  42        5PX         0.00000   0.00000  -1.89589   0.00000   0.00000
  43        5PY         1.12262   0.00000   0.00000  -1.89589   0.00000
  44        5PZ         0.00000  -2.60731   0.00000   0.00000  -0.46190
  45        6D 0        0.00000  -0.00604   0.00000   0.00000  -0.00525
  46        6D+1        0.00000   0.00000  -0.00314   0.00000   0.00000
  47        6D-1        0.00158   0.00000   0.00000  -0.00314   0.00000
  48        6D+2        0.00000  -0.00000   0.00000   0.00000   0.00000
  49        6D-2        0.00000   0.00000   0.00000   0.00000   0.00000
  50        7D 0        0.00000  -0.02665   0.00000   0.00000   0.04535
  51        7D+1        0.00000   0.00000  -0.01715   0.00000   0.00000
  52        7D-1        0.02384   0.00000   0.00000  -0.01715   0.00000
  53        7D+2        0.00000  -0.00000   0.00000   0.00000  -0.00000
  54        7D-2        0.00000   0.00000   0.00000   0.00000   0.00000
  55 3   O  1S          0.00000  -0.00012   0.00000   0.00000  -0.03060
  56        2S          0.00000  -0.00139   0.00000   0.00000  -0.05208
  57        2PX         0.00000   0.00000   0.08367   0.00000   0.00000
  58        2PY         0.08351   0.00000   0.00000   0.08367   0.00000
  59        2PZ         0.00000   0.01137   0.00000   0.00000  -0.03698
  60        3S          0.00000   0.03057   0.00000   0.00000   0.21463
  61        3PX         0.00000   0.00000   0.08500   0.00000   0.00000
  62        3PY         0.08332   0.00000   0.00000   0.08500   0.00000
  63        3PZ         0.00000   0.02163   0.00000   0.00000   0.00632
  64        4S          0.00000  -0.36024   0.00000   0.00000   0.01313
  65        4PX         0.00000   0.00000   0.36059   0.00000   0.00000
  66        4PY         0.36322   0.00000   0.00000   0.36059   0.00000
  67        4PZ         0.00000  -0.11904   0.00000   0.00000  -0.75333
  68        5S          0.00000  -2.74964   0.00000   0.00000  -6.18209
  69        5PX         0.00000   0.00000  -1.89589   0.00000   0.00000
  70        5PY        -1.12262   0.00000   0.00000  -1.89589   0.00000
  71        5PZ         0.00000  -2.60731   0.00000   0.00000  -0.46190
  72        6D 0        0.00000   0.00604   0.00000   0.00000   0.00525
  73        6D+1        0.00000   0.00000   0.00314   0.00000   0.00000
  74        6D-1        0.00158   0.00000   0.00000   0.00314   0.00000
  75        6D+2        0.00000   0.00000   0.00000   0.00000  -0.00000
  76        6D-2        0.00000   0.00000   0.00000   0.00000   0.00000
  77        7D 0        0.00000   0.02665   0.00000   0.00000  -0.04535
  78        7D+1        0.00000   0.00000   0.01715   0.00000   0.00000
  79        7D-1        0.02384   0.00000   0.00000   0.01715   0.00000
  80        7D+2        0.00000   0.00000   0.00000   0.00000   0.00000
  81        7D-2        0.00000   0.00000   0.00000   0.00000   0.00000
                          26        27        28        29        30
                       (SGG)--V  (PIU)--V  (PIU)--V  (DLTG)--  (DLTG)--
     Eigenvalues --     0.29118   0.52042   0.52042   0.57331   0.57331
   1 1   C  1S          0.05930   0.00000   0.00000   0.00000   0.00000
   2        2S          0.09966   0.00000   0.00000   0.00000   0.00000
   3        2PX         0.00000  -0.24074   0.00000   0.00000   0.00000
   4        2PY         0.00000   0.00000  -0.24074   0.00000   0.00000
   5        2PZ         0.00000   0.00000   0.00000   0.00000   0.00000
   6        3S         -0.27493   0.00000   0.00000  -0.00000   0.00000
   7        3PX         0.00000  -0.86160   0.00000   0.00000   0.00000
   8        3PY         0.00000   0.00000  -0.86160   0.00000   0.00000
   9        3PZ         0.00000   0.00000   0.00000   0.00000   0.00000
  10        4S         -4.45422   0.00000   0.00000   0.00000   0.00000
  11        4PX         0.00000   2.18366   0.00000   0.00000   0.00000
  12        4PY         0.00000   0.00000   2.18366   0.00000   0.00000
  13        4PZ         0.00000   0.00000   0.00000   0.00000   0.00000
  14        5S         -3.90441   0.00000   0.00000   0.00000   0.00000
  15        5PX         0.00000  -0.03180   0.00000   0.00000   0.00000
  16        5PY         0.00000   0.00000  -0.03180   0.00000   0.00000
  17        5PZ         0.00000   0.00000   0.00000   0.00000   0.00000
  18        6D 0        0.01491   0.00000   0.00000  -0.00000   0.00000
  19        6D+1        0.00000   0.00000   0.00000   0.00000   0.00000
  20        6D-1        0.00000   0.00000   0.00000   0.00000   0.00000
  21        6D+2        0.00000   0.00000   0.00000   0.01324   0.00000
  22        6D-2        0.00000   0.00000   0.00000   0.00000   0.01324
  23        7D 0       -0.11776   0.00000   0.00000   0.00000   0.00000
  24        7D+1        0.00000   0.00000   0.00000   0.00000   0.00000
  25        7D-1        0.00000   0.00000   0.00000   0.00000   0.00000
  26        7D+2        0.00000   0.00000   0.00000   0.95110   0.00000
  27        7D-2        0.00000   0.00000   0.00000   0.00000   0.95110
  28 2   O  1S          0.00877   0.00000   0.00000  -0.00000   0.00000
  29        2S          0.01285   0.00000   0.00000  -0.00000   0.00000
  30        2PX         0.00000   0.00905   0.00000   0.00000   0.00000
  31        2PY         0.00000   0.00000   0.00905   0.00000   0.00000
  32        2PZ        -0.11020   0.00000   0.00000  -0.00000   0.00000
  33        3S         -0.01315   0.00000   0.00000   0.00000   0.00000
  34        3PX         0.00000   0.03189   0.00000   0.00000   0.00000
  35        3PY         0.00000   0.00000   0.03189   0.00000   0.00000
  36        3PZ        -0.14488   0.00000   0.00000   0.00000   0.00000
  37        4S         -0.30000   0.00000   0.00000  -0.00000   0.00000
  38        4PX         0.00000  -0.19475   0.00000   0.00000   0.00000
  39        4PY         0.00000   0.00000  -0.19475   0.00000   0.00000
  40        4PZ        -0.62472   0.00000   0.00000   0.00000   0.00000
  41        5S          4.46172   0.00000   0.00000  -0.00000   0.00000
  42        5PX         0.00000  -0.67056   0.00000   0.00000   0.00000
  43        5PY         0.00000   0.00000  -0.67056   0.00000   0.00000
  44        5PZ        -0.98251   0.00000   0.00000   0.00000   0.00000
  45        6D 0       -0.00774   0.00000   0.00000   0.00000   0.00000
  46        6D+1        0.00000  -0.00121   0.00000   0.00000   0.00000
  47        6D-1        0.00000   0.00000  -0.00121   0.00000   0.00000
  48        6D+2        0.00000   0.00000   0.00000   0.00614   0.00000
  49        6D-2        0.00000   0.00000   0.00000   0.00000   0.00614
  50        7D 0        0.00806   0.00000   0.00000  -0.00000   0.00000
  51        7D+1        0.00000   0.02461   0.00000   0.00000   0.00000
  52        7D-1        0.00000   0.00000   0.02461   0.00000   0.00000
  53        7D+2       -0.00000   0.00000   0.00000   0.07593   0.00000
  54        7D-2        0.00000   0.00000   0.00000   0.00000   0.07593
  55 3   O  1S          0.00877   0.00000   0.00000  -0.00000   0.00000
  56        2S          0.01285   0.00000   0.00000  -0.00000   0.00000
  57        2PX         0.00000   0.00905   0.00000   0.00000   0.00000
  58        2PY         0.00000   0.00000   0.00905   0.00000   0.00000
  59        2PZ         0.11020   0.00000   0.00000   0.00000   0.00000
  60        3S         -0.01315   0.00000   0.00000   0.00000   0.00000
  61        3PX         0.00000   0.03189   0.00000   0.00000   0.00000
  62        3PY         0.00000   0.00000   0.03189   0.00000   0.00000
  63        3PZ         0.14488   0.00000   0.00000  -0.00000   0.00000
  64        4S         -0.30000   0.00000   0.00000  -0.00000   0.00000
  65        4PX         0.00000  -0.19475   0.00000   0.00000   0.00000
  66        4PY         0.00000   0.00000  -0.19475   0.00000   0.00000
  67        4PZ         0.62472   0.00000   0.00000  -0.00000   0.00000
  68        5S          4.46172   0.00000   0.00000  -0.00000   0.00000
  69        5PX         0.00000  -0.67056   0.00000   0.00000   0.00000
  70        5PY         0.00000   0.00000  -0.67056   0.00000   0.00000
  71        5PZ         0.98251   0.00000   0.00000  -0.00000   0.00000
  72        6D 0       -0.00774   0.00000   0.00000   0.00000   0.00000
  73        6D+1        0.00000   0.00121   0.00000   0.00000   0.00000
  74        6D-1        0.00000   0.00000   0.00121   0.00000   0.00000
  75        6D+2        0.00000   0.00000   0.00000   0.00614   0.00000
  76        6D-2        0.00000   0.00000   0.00000   0.00000   0.00614
  77        7D 0        0.00806   0.00000   0.00000  -0.00000   0.00000
  78        7D+1        0.00000  -0.02461   0.00000   0.00000   0.00000
  79        7D-1        0.00000   0.00000  -0.02461   0.00000   0.00000
  80        7D+2       -0.00000   0.00000   0.00000   0.07593   0.00000
  81        7D-2        0.00000   0.00000   0.00000   0.00000   0.07593
                          31        32        33        34        35
                       (SGU)--V  (SGU)--V  (SGG)--V  (PIG)--V  (PIG)--V
     Eigenvalues --     0.63001   0.68583   0.69027   0.87774   0.87774
   1 1   C  1S          0.00000   0.00000   0.09158   0.00000   0.00000
   2        2S          0.00000   0.00000   0.16945   0.00000   0.00000
   3        2PX         0.00000   0.00000   0.00000   0.00000   0.00000
   4        2PY         0.00000   0.00000   0.00000   0.00000   0.00000
   5        2PZ         0.43175   0.00866   0.00000   0.00000   0.00000
   6        3S          0.00000   0.00000  -1.95435   0.00000   0.00000
   7        3PX         0.00000   0.00000   0.00000   0.00000   0.00000
   8        3PY         0.00000   0.00000   0.00000   0.00000   0.00000
   9        3PZ         1.06908   0.01954   0.00000   0.00000   0.00000
  10        4S          0.00000   0.00000  15.67001   0.00000   0.00000
  11        4PX         0.00000   0.00000   0.00000   0.00000   0.00000
  12        4PY         0.00000   0.00000   0.00000   0.00000   0.00000
  13        4PZ         0.04849   9.68142   0.00000   0.00000   0.00000
  14        5S          0.00000   0.00000   1.89542   0.00000   0.00000
  15        5PX         0.00000   0.00000   0.00000   0.00000   0.00000
  16        5PY         0.00000   0.00000   0.00000   0.00000   0.00000
  17        5PZ         0.49621   1.32280   0.00000   0.00000   0.00000
  18        6D 0        0.00000   0.00000  -0.01780   0.00000   0.00000
  19        6D+1        0.00000   0.00000   0.00000   0.00000   0.03244
  20        6D-1        0.00000   0.00000   0.00000   0.03244   0.00000
  21        6D+2        0.00000   0.00000  -0.00000   0.00000   0.00000
  22        6D-2        0.00000   0.00000   0.00000   0.00000   0.00000
  23        7D 0        0.00000   0.00000   2.35682   0.00000   0.00000
  24        7D+1        0.00000   0.00000   0.00000   0.00000   1.39042
  25        7D-1        0.00000   0.00000   0.00000   1.39042   0.00000
  26        7D+2        0.00000   0.00000  -0.00000   0.00000   0.00000
  27        7D-2        0.00000   0.00000   0.00000   0.00000   0.00000
  28 2   O  1S          0.03528   0.02944  -0.01402   0.00000   0.00000
  29        2S          0.06049   0.04672  -0.02546   0.00000   0.00000
  30        2PX         0.00000   0.00000   0.00000   0.00000  -0.08899
  31        2PY         0.00000   0.00000   0.00000  -0.08899   0.00000
  32        2PZ         0.16652   0.08102  -0.07207   0.00000   0.00000
  33        3S         -0.22324  -0.06821   0.19301   0.00000   0.00000
  34        3PX         0.00000   0.00000   0.00000   0.00000  -0.16983
  35        3PY         0.00000   0.00000   0.00000  -0.16983   0.00000
  36        3PZ         0.25097   0.10728   0.08559   0.00000   0.00000
  37        4S         -0.48207  -3.25163  -4.21224   0.00000   0.00000
  38        4PX         0.00000   0.00000   0.00000   0.00000  -0.64945
  39        4PY         0.00000   0.00000   0.00000  -0.64945   0.00000
  40        4PZ         0.71909   1.41579   2.50452   0.00000   0.00000
  41        5S          0.09860  -7.71532  -4.53904   0.00000   0.00000
  42        5PX         0.00000   0.00000   0.00000   0.00000   0.11064
  43        5PY         0.00000   0.00000   0.00000   0.11064   0.00000
  44        5PZ        -0.73064   2.41156   1.70635   0.00000   0.00000
  45        6D 0        0.01989  -0.00190   0.00890   0.00000   0.00000
  46        6D+1        0.00000   0.00000   0.00000   0.00000  -0.02567
  47        6D-1        0.00000   0.00000   0.00000  -0.02567   0.00000
  48        6D+2       -0.00000  -0.00000  -0.00000   0.00000   0.00000
  49        6D-2        0.00000   0.00000   0.00000   0.00000   0.00000
  50        7D 0        0.05579  -0.08720  -0.24273   0.00000   0.00000
  51        7D+1        0.00000   0.00000   0.00000   0.00000  -0.06958
  52        7D-1        0.00000   0.00000   0.00000  -0.06958   0.00000
  53        7D+2       -0.00000  -0.00000   0.00000   0.00000   0.00000
  54        7D-2        0.00000   0.00000   0.00000   0.00000   0.00000
  55 3   O  1S         -0.03528  -0.02944  -0.01402   0.00000   0.00000
  56        2S         -0.06049  -0.04672  -0.02546   0.00000   0.00000
  57        2PX         0.00000   0.00000   0.00000   0.00000   0.08899
  58        2PY         0.00000   0.00000   0.00000   0.08899   0.00000
  59        2PZ         0.16652   0.08102   0.07207   0.00000   0.00000
  60        3S          0.22324   0.06821   0.19301   0.00000   0.00000
  61        3PX         0.00000   0.00000   0.00000   0.00000   0.16983
  62        3PY         0.00000   0.00000   0.00000   0.16983   0.00000
  63        3PZ         0.25097   0.10728  -0.08559   0.00000   0.00000
  64        4S          0.48207   3.25163  -4.21224   0.00000   0.00000
  65        4PX         0.00000   0.00000   0.00000   0.00000   0.64945
  66        4PY         0.00000   0.00000   0.00000   0.64945   0.00000
  67        4PZ         0.71909   1.41579  -2.50452   0.00000   0.00000
  68        5S         -0.09860   7.71532  -4.53904   0.00000   0.00000
  69        5PX         0.00000   0.00000   0.00000   0.00000  -0.11064
  70        5PY         0.00000   0.00000   0.00000  -0.11064   0.00000
  71        5PZ        -0.73064   2.41156  -1.70635   0.00000   0.00000
  72        6D 0       -0.01989   0.00190   0.00890   0.00000   0.00000
  73        6D+1        0.00000   0.00000   0.00000   0.00000  -0.02567
  74        6D-1        0.00000   0.00000   0.00000  -0.02567   0.00000
  75        6D+2        0.00000   0.00000  -0.00000   0.00000   0.00000
  76        6D-2        0.00000   0.00000   0.00000   0.00000   0.00000
  77        7D 0       -0.05579   0.08720  -0.24273   0.00000   0.00000
  78        7D+1        0.00000   0.00000   0.00000   0.00000  -0.06958
  79        7D-1        0.00000   0.00000   0.00000  -0.06958   0.00000
  80        7D+2        0.00000   0.00000   0.00000   0.00000   0.00000
  81        7D-2        0.00000   0.00000   0.00000   0.00000   0.00000
                          36        37        38        39        40
                       (SGG)--V  (PIG)--V  (PIG)--V  (PIU)--V  (PIU)--V
     Eigenvalues --     0.91587   0.98013   0.98013   1.09347   1.09347
   1 1   C  1S         -0.05193   0.00000   0.00000   0.00000   0.00000
   2        2S         -0.12341   0.00000   0.00000   0.00000   0.00000
   3        2PX         0.00000   0.00000   0.00000  -0.00843   0.00000
   4        2PY         0.00000   0.00000   0.00000   0.00000  -0.00843
   5        2PZ         0.00000   0.00000   0.00000   0.00000   0.00000
   6        3S          0.99158   0.00000   0.00000   0.00000   0.00000
   7        3PX         0.00000   0.00000   0.00000  -0.17677   0.00000
   8        3PY         0.00000   0.00000   0.00000   0.00000  -0.17677
   9        3PZ         0.00000   0.00000   0.00000   0.00000   0.00000
  10        4S          6.23832   0.00000   0.00000   0.00000   0.00000
  11        4PX         0.00000   0.00000   0.00000  -0.11686   0.00000
  12        4PY         0.00000   0.00000   0.00000   0.00000  -0.11686
  13        4PZ         0.00000   0.00000   0.00000   0.00000   0.00000
  14        5S          0.22898   0.00000   0.00000   0.00000   0.00000
  15        5PX         0.00000   0.00000   0.00000   0.99849   0.00000
  16        5PY         0.00000   0.00000   0.00000   0.00000   0.99849
  17        5PZ         0.00000   0.00000   0.00000   0.00000   0.00000
  18        6D 0        0.03827   0.00000   0.00000   0.00000   0.00000
  19        6D+1        0.00000   0.00000  -0.00369   0.00000   0.00000
  20        6D-1        0.00000  -0.00369   0.00000   0.00000   0.00000
  21        6D+2       -0.00000   0.00000   0.00000   0.00000   0.00000
  22        6D-2        0.00000   0.00000   0.00000   0.00000   0.00000
  23        7D 0        1.74768   0.00000   0.00000   0.00000   0.00000
  24        7D+1        0.00000   0.00000  -0.48716   0.00000   0.00000
  25        7D-1        0.00000  -0.48716   0.00000   0.00000   0.00000
  26        7D+2       -0.00000   0.00000   0.00000   0.00000   0.00000
  27        7D-2        0.00000   0.00000   0.00000   0.00000   0.00000
  28 2   O  1S          0.00948   0.00000   0.00000   0.00000   0.00000
  29        2S          0.01404   0.00000   0.00000   0.00000   0.00000
  30        2PX         0.00000   0.00000  -0.17538  -0.17658   0.00000
  31        2PY         0.00000  -0.17538   0.00000   0.00000  -0.17658
  32        2PZ        -0.09394   0.00000   0.00000   0.00000   0.00000
  33        3S          0.03457   0.00000   0.00000   0.00000   0.00000
  34        3PX         0.00000   0.00000  -0.56897  -0.58992   0.00000
  35        3PY         0.00000  -0.56897   0.00000   0.00000  -0.58992
  36        3PZ        -0.24547   0.00000   0.00000   0.00000   0.00000
  37        4S         -3.00759   0.00000   0.00000   0.00000   0.00000
  38        4PX         0.00000   0.00000   1.48690   1.43440   0.00000
  39        4PY         0.00000   1.48690   0.00000   0.00000   1.43440
  40        4PZ         2.68819   0.00000   0.00000   0.00000   0.00000
  41        5S         -1.17117   0.00000   0.00000   0.00000   0.00000
  42        5PX         0.00000   0.00000  -0.77818  -1.16007   0.00000
  43        5PY         0.00000  -0.77818   0.00000   0.00000  -1.16007
  44        5PZ        -0.20899   0.00000   0.00000   0.00000   0.00000
  45        6D 0        0.02862   0.00000   0.00000   0.00000   0.00000
  46        6D+1        0.00000   0.00000   0.01514   0.00812   0.00000
  47        6D-1        0.00000   0.01514   0.00000   0.00000   0.00812
  48        6D+2       -0.00000   0.00000   0.00000   0.00000   0.00000
  49        6D-2        0.00000   0.00000   0.00000   0.00000   0.00000
  50        7D 0       -0.02440   0.00000   0.00000   0.00000   0.00000
  51        7D+1        0.00000   0.00000  -0.01417   0.09209   0.00000
  52        7D-1        0.00000  -0.01417   0.00000   0.00000   0.09209
  53        7D+2        0.00000   0.00000   0.00000   0.00000   0.00000
  54        7D-2        0.00000   0.00000   0.00000   0.00000   0.00000
  55 3   O  1S          0.00948   0.00000   0.00000   0.00000   0.00000
  56        2S          0.01404   0.00000   0.00000   0.00000   0.00000
  57        2PX         0.00000   0.00000   0.17538  -0.17658   0.00000
  58        2PY         0.00000   0.17538   0.00000   0.00000  -0.17658
  59        2PZ         0.09394   0.00000   0.00000   0.00000   0.00000
  60        3S          0.03457   0.00000   0.00000   0.00000   0.00000
  61        3PX         0.00000   0.00000   0.56897  -0.58992   0.00000
  62        3PY         0.00000   0.56897   0.00000   0.00000  -0.58992
  63        3PZ         0.24547   0.00000   0.00000   0.00000   0.00000
  64        4S         -3.00759   0.00000   0.00000   0.00000   0.00000
  65        4PX         0.00000   0.00000  -1.48690   1.43440   0.00000
  66        4PY         0.00000  -1.48690   0.00000   0.00000   1.43440
  67        4PZ        -2.68819   0.00000   0.00000   0.00000   0.00000
  68        5S         -1.17117   0.00000   0.00000   0.00000   0.00000
  69        5PX         0.00000   0.00000   0.77818  -1.16007   0.00000
  70        5PY         0.00000   0.77818   0.00000   0.00000  -1.16007
  71        5PZ         0.20899   0.00000   0.00000   0.00000   0.00000
  72        6D 0        0.02862   0.00000   0.00000   0.00000   0.00000
  73        6D+1        0.00000   0.00000   0.01514  -0.00812   0.00000
  74        6D-1        0.00000   0.01514   0.00000   0.00000  -0.00812
  75        6D+2       -0.00000   0.00000   0.00000   0.00000   0.00000
  76        6D-2        0.00000   0.00000   0.00000   0.00000   0.00000
  77        7D 0       -0.02440   0.00000   0.00000   0.00000   0.00000
  78        7D+1        0.00000   0.00000  -0.01417  -0.09209   0.00000
  79        7D-1        0.00000  -0.01417   0.00000   0.00000  -0.09209
  80        7D+2        0.00000   0.00000   0.00000   0.00000   0.00000
  81        7D-2        0.00000   0.00000   0.00000   0.00000   0.00000
                          41        42        43        44        45
                       (SGU)--V  (SGG)--V  (DLTU)--  (DLTU)--  (DLTG)--
     Eigenvalues --     1.10948   1.28931   1.40418   1.40418   1.59290
   1 1   C  1S          0.00000   0.03970   0.00000   0.00000   0.00000
   2        2S          0.00000   0.07996   0.00000   0.00000   0.00000
   3        2PX         0.00000   0.00000   0.00000   0.00000   0.00000
   4        2PY         0.00000   0.00000   0.00000   0.00000   0.00000
   5        2PZ        -0.15504   0.00000   0.00000   0.00000   0.00000
   6        3S          0.00000  -0.29405   0.00000   0.00000   0.00000
   7        3PX         0.00000   0.00000   0.00000   0.00000   0.00000
   8        3PY         0.00000   0.00000   0.00000   0.00000   0.00000
   9        3PZ         0.94649   0.00000   0.00000   0.00000   0.00000
  10        4S          0.00000  -2.79800   0.00000   0.00000  -0.00000
  11        4PX         0.00000   0.00000   0.00000   0.00000   0.00000
  12        4PY         0.00000   0.00000   0.00000   0.00000   0.00000
  13        4PZ         5.98015   0.00000   0.00000   0.00000   0.00000
  14        5S          0.00000   1.81759   0.00000   0.00000  -0.00000
  15        5PX         0.00000   0.00000   0.00000   0.00000   0.00000
  16        5PY         0.00000   0.00000   0.00000   0.00000   0.00000
  17        5PZ         2.11998   0.00000   0.00000   0.00000   0.00000
  18        6D 0        0.00000  -0.00698   0.00000   0.00000   0.00000
  19        6D+1        0.00000   0.00000   0.00000   0.00000   0.00000
  20        6D-1        0.00000   0.00000   0.00000   0.00000   0.00000
  21        6D+2        0.00000   0.00000   0.00000   0.00000  -0.01306
  22        6D-2        0.00000   0.00000   0.00000   0.00000   0.00000
  23        7D 0        0.00000  -1.59381   0.00000   0.00000  -0.00000
  24        7D+1        0.00000   0.00000   0.00000   0.00000   0.00000
  25        7D-1        0.00000   0.00000   0.00000   0.00000   0.00000
  26        7D+2        0.00000   0.00000   0.00000   0.00000  -0.45920
  27        7D-2        0.00000   0.00000   0.00000   0.00000   0.00000
  28 2   O  1S          0.02303   0.06497   0.00000   0.00000  -0.00000
  29        2S          0.03828   0.12886   0.00000   0.00000  -0.00000
  30        2PX         0.00000   0.00000   0.00000   0.00000   0.00000
  31        2PY         0.00000   0.00000   0.00000   0.00000   0.00000
  32        2PZ        -0.17679  -0.08917  -0.00000   0.00000  -0.00000
  33        3S         -0.06042  -1.00370  -0.00000   0.00000   0.00000
  34        3PX         0.00000   0.00000   0.00000   0.00000   0.00000
  35        3PY         0.00000   0.00000   0.00000   0.00000   0.00000
  36        3PZ        -0.55942  -0.42413  -0.00000   0.00000  -0.00000
  37        4S         -2.20427   3.90209  -0.00000   0.00000   0.00000
  38        4PX         0.00000   0.00000   0.00000   0.00000   0.00000
  39        4PY         0.00000   0.00000   0.00000   0.00000   0.00000
  40        4PZ         2.88079  -0.48135   0.00000   0.00000  -0.00000
  41        5S         -5.42096  -1.89750  -0.00000   0.00000   0.00000
  42        5PX         0.00000   0.00000   0.00000   0.00000   0.00000
  43        5PY         0.00000   0.00000   0.00000   0.00000   0.00000
  44        5PZ         0.12964   0.06676   0.00000   0.00000  -0.00000
  45        6D 0        0.02249  -0.00867   0.00000   0.00000  -0.00000
  46        6D+1        0.00000   0.00000   0.00000   0.00000   0.00000
  47        6D-1        0.00000   0.00000   0.00000   0.00000   0.00000
  48        6D+2       -0.00000  -0.00000   0.00406   0.00000   0.00910
  49        6D-2        0.00000   0.00000   0.00000   0.00406   0.00000
  50        7D 0       -0.17894  -0.07331  -0.00000   0.00000   0.00000
  51        7D+1        0.00000   0.00000   0.00000   0.00000   0.00000
  52        7D-1        0.00000   0.00000   0.00000   0.00000   0.00000
  53        7D+2       -0.00000  -0.00000   0.70547   0.00000   0.74317
  54        7D-2        0.00000   0.00000   0.00000   0.70547   0.00000
  55 3   O  1S         -0.02303   0.06497  -0.00000   0.00000  -0.00000
  56        2S         -0.03828   0.12886  -0.00000   0.00000  -0.00000
  57        2PX         0.00000   0.00000   0.00000   0.00000   0.00000
  58        2PY         0.00000   0.00000   0.00000   0.00000   0.00000
  59        2PZ        -0.17679   0.08917  -0.00000   0.00000   0.00000
  60        3S          0.06042  -1.00370   0.00000   0.00000   0.00000
  61        3PX         0.00000   0.00000   0.00000   0.00000   0.00000
  62        3PY         0.00000   0.00000   0.00000   0.00000   0.00000
  63        3PZ        -0.55942   0.42413  -0.00000   0.00000   0.00000
  64        4S          2.20427   3.90209   0.00000   0.00000   0.00000
  65        4PX         0.00000   0.00000   0.00000   0.00000   0.00000
  66        4PY         0.00000   0.00000   0.00000   0.00000   0.00000
  67        4PZ         2.88079   0.48135   0.00000   0.00000   0.00000
  68        5S          5.42096  -1.89750   0.00000   0.00000   0.00000
  69        5PX         0.00000   0.00000   0.00000   0.00000   0.00000
  70        5PY         0.00000   0.00000   0.00000   0.00000   0.00000
  71        5PZ         0.12964  -0.06676   0.00000   0.00000   0.00000
  72        6D 0       -0.02249  -0.00867  -0.00000   0.00000  -0.00000
  73        6D+1        0.00000   0.00000   0.00000   0.00000   0.00000
  74        6D-1        0.00000   0.00000   0.00000   0.00000   0.00000
  75        6D+2        0.00000  -0.00000  -0.00406   0.00000   0.00910
  76        6D-2        0.00000   0.00000   0.00000  -0.00406   0.00000
  77        7D 0        0.17894  -0.07331   0.00000   0.00000   0.00000
  78        7D+1        0.00000   0.00000   0.00000   0.00000   0.00000
  79        7D-1        0.00000   0.00000   0.00000   0.00000   0.00000
  80        7D+2        0.00000  -0.00000  -0.70547   0.00000   0.74317
  81        7D-2        0.00000   0.00000   0.00000  -0.70547   0.00000
                          46        47        48        49        50
                       (DLTG)--  (PIU)--V  (PIU)--V  (SGU)--V  (SGG)--V
     Eigenvalues --     1.59290   1.75489   1.75489   1.75589   1.93220
   1 1   C  1S          0.00000   0.00000   0.00000   0.00000  -0.06632
   2        2S          0.00000   0.00000   0.00000   0.00000  -0.11959
   3        2PX         0.00000   0.00000   0.26680   0.00000   0.00000
   4        2PY         0.00000   0.26680   0.00000   0.00000   0.00000
   5        2PZ         0.00000   0.00000   0.00000  -0.09822   0.00000
   6        3S          0.00000   0.00000   0.00000   0.00000  -0.16023
   7        3PX         0.00000   0.00000   0.22579   0.00000   0.00000
   8        3PY         0.00000   0.22579   0.00000   0.00000   0.00000
   9        3PZ         0.00000   0.00000   0.00000   0.23408   0.00000
  10        4S          0.00000   0.00000   0.00000   0.00000  13.09361
  11        4PX         0.00000   0.00000   0.60024   0.00000   0.00000
  12        4PY         0.00000   0.60024   0.00000   0.00000   0.00000
  13        4PZ         0.00000   0.00000   0.00000   7.86009   0.00000
  14        5S          0.00000   0.00000   0.00000   0.00000   0.87220
  15        5PX         0.00000   0.00000  -0.04574   0.00000   0.00000
  16        5PY         0.00000  -0.04574   0.00000   0.00000   0.00000
  17        5PZ         0.00000   0.00000   0.00000   0.18708   0.00000
  18        6D 0        0.00000   0.00000   0.00000   0.00000  -0.06910
  19        6D+1        0.00000   0.00000   0.00000   0.00000   0.00000
  20        6D-1        0.00000   0.00000   0.00000   0.00000   0.00000
  21        6D+2        0.00000   0.00000   0.00000   0.00000  -0.00000
  22        6D-2       -0.01306   0.00000   0.00000   0.00000   0.00000
  23        7D 0        0.00000   0.00000   0.00000   0.00000   4.65758
  24        7D+1        0.00000   0.00000   0.00000   0.00000   0.00000
  25        7D-1        0.00000   0.00000   0.00000   0.00000   0.00000
  26        7D+2        0.00000   0.00000   0.00000   0.00000   0.00000
  27        7D-2       -0.45920   0.00000   0.00000   0.00000   0.00000
  28 2   O  1S          0.00000   0.00000   0.00000  -0.07388   0.05196
  29        2S          0.00000   0.00000   0.00000  -0.15440   0.10678
  30        2PX         0.00000   0.00000   0.05441   0.00000   0.00000
  31        2PY         0.00000   0.05441   0.00000   0.00000   0.00000
  32        2PZ         0.00000   0.00000   0.00000  -0.03530   0.13108
  33        3S          0.00000   0.00000   0.00000   1.45682  -0.87469
  34        3PX         0.00000   0.00000   0.11625   0.00000   0.00000
  35        3PY         0.00000   0.11625   0.00000   0.00000   0.00000
  36        3PZ         0.00000   0.00000   0.00000  -0.12099   0.68221
  37        4S          0.00000   0.00000   0.00000  -5.33928  -5.08252
  38        4PX         0.00000   0.00000  -0.43544   0.00000   0.00000
  39        4PY         0.00000  -0.43544   0.00000   0.00000   0.00000
[...]
 Petite list used in FoFCou.
 Leave Link  703 at Fri Sep  6 10:18:22 2024, MaxMem=  1073741824 cpu:               2.7 elap:               0.4
 (Enter /Users/asuyarger/Applications/G16/g16/l716.exe)
 Dipole        =-1.03618295D-16 1.52865987D-33 4.44089210D-16
 Polarizability= 1.05773954D+01 4.84739581D-18 1.05773954D+01
                -1.62153152D-15 1.12496647D-32 2.56845180D+01
 HyperPolar    = 4.17437412D-11 3.60675272D-12 6.95586056D-12
                 8.38023472D-12-2.32576087D-11 3.97705411D-12
                -2.04770003D-12 1.66314325D-11-4.66901249D-12
                 1.20897865D-10
 Full mass-weighted force constant matrix:
 Low frequencies ---   -0.0005    0.0005    0.0014    1.6809    1.6809  675.6624
 Low frequencies ---  675.6624 1364.3189 2400.2488
 Diagonal vibrational polarizability:
        1.7176732       1.7176732       3.1678594
 Diagonal vibrational hyperpolarizability:
        0.0000000      -0.0000000       0.0000000
 Harmonic frequencies (cm**-1), IR intensities (KM/Mole), Raman scattering
 activities (A**4/AMU), depolarization ratios for plane and unpolarized
 incident light, reduced masses (AMU), force constants (mDyne/A),
 and normal coordinates:
                      1                      2                      3
                     PIU                    PIU                    SGG
 Frequencies --    675.6624               675.6624              1364.3189
 Red. masses --     12.8774                12.8774                15.9949
 Frc consts  --      3.4637                 3.4637                17.5414
 IR Inten    --     29.1385                29.1385                 0.0000
 Raman Activ --      0.0000                 0.0000                18.9623
 Depolar (P) --      0.0000                 0.0000                 0.1485
 Depolar (U) --      0.0000                 0.0000                 0.2585
  Atom  AN      X      Y      Z        X      Y      Z        X      Y      Z
     1   6     0.63  -0.62  -0.00     0.62   0.63  -0.00     0.00   0.00  -0.00
     2   8    -0.24   0.23  -0.00    -0.23  -0.24  -0.00    -0.00  -0.00   0.71
     3   8    -0.24   0.23   0.00    -0.23  -0.24   0.00    -0.00  -0.00  -0.71
                      4
                     SGU
 Frequencies --   2400.2488
 Red. masses --     12.8774
 Frc consts  --     43.7109
 IR Inten    --    678.1805
 Raman Activ --      0.0000
 Depolar (P) --      0.0000
 Depolar (U) --      0.0000
  Atom  AN      X      Y      Z
     1   6     0.00  -0.00   0.88
     2   8    -0.00   0.00  -0.33
     3   8    -0.00   0.00  -0.33

 -------------------
 - Thermochemistry -
 -------------------
 Temperature   298.150 Kelvin.  Pressure   1.00000 Atm.
 Atom     1 has atomic number  6 and mass  12.00000
 Atom     2 has atomic number  8 and mass  15.99491
 Atom     3 has atomic number  8 and mass  15.99491
 Molecular mass:    43.98983 amu.
 Principal axes and moments of inertia in atomic units:
                           1         2         3
     Eigenvalues --     0.00000 153.81315 153.81315
           X           -0.00000   1.00000  -0.00000
           Y            0.00000   0.00000   1.00000
           Z            1.00000   0.00000  -0.00000
 This molecule is a prolate symmetric top.
 Rotational symmetry number  2.
 Rotational temperature (Kelvin)      0.56311
 Rotational constant (GHZ):          11.733335
 Zero-point vibrational energy      30599.8 (Joules/Mol)
                                    7.31354 (Kcal/Mol)
 Vibrational temperatures:    972.13   972.13  1962.95  3453.42
          (Kelvin)
 
 Zero-point correction=                           0.011655 (Hartree/Particle)
 Thermal correction to Energy=                    0.014270
 Thermal correction to Enthalpy=                  0.015214
 Thermal correction to Gibbs Free Energy=        -0.009035
 Sum of electronic and zero-point Energies=           -188.638985
 Sum of electronic and thermal Energies=              -188.636370
 Sum of electronic and thermal Enthalpies=            -188.635426
 Sum of electronic and thermal Free Energies=         -188.659675
 
                     E (Thermal)             CV                S
                      KCal/Mol        Cal/Mol-Kelvin    Cal/Mol-Kelvin
 Total                    8.954              6.843             51.037
 Electronic               0.000              0.000              0.000
 Translational            0.889              2.981             37.270
 Rotational               0.592              1.987             13.073
 Vibrational              7.473              1.875              0.694
                       Q            Log10(Q)             Ln(Q)
 Total Bot       0.143226D+05          4.156021          9.569592
 Total V=0       0.328761D+10          9.516880         21.913426
 Vib (Bot)       0.471768D-05         -5.326272        -12.264194
 Vib (V=0)       0.108290D+01          0.034587          0.079640
 Electronic      0.100000D+01          0.000000          0.000000
 Translational   0.114679D+08          7.059482         16.255059
 Rotational      0.264735D+03          2.422811          5.578728
 
                                            CO2 DFT 6-311++g(2d,3p) Opt Freq - Fu
 ll - NBO
                                                             IR Spectrum
 
     2                                                      1                                                                        
     4                                                      3                                    6                                   
     0                                                      6                                    7                                   
     0                                                      4                                    6                                   
 
     X                                                                                           X                                   
     X                                                                                           X                                   
     X                                                                                                                               
     X                                                                                                                               
     X                                                                                                                               
     X                                                                                                                               
     X                                                                                                                               
     X                                                                                                                               
     X                                                                                                                               
     X                                                                                                                               
     X                                                                                                                               
     X                                                                                                                               
     X                                                                                                                               
     X                                                                                                                               
     X                                                                                                                               
     X                                                                                                                               
     X                                                                                                                               
     X                                                                                                                               
     X                                                                                                                               
     X                                                                                                                               
 
 
                                            CO2 DFT 6-311++g(2d,3p) Opt Freq - Fu
 ll - NBO
                                                            Raman Spectrum
 
     2                                                      1                                                                        
     4                                                      3                                    6                                   
     0                                                      6                                    7                                   
     0                                                      4                                    6                                   
 
                                                            X                                                                        
                                                            X                                                                        
                                                            X                                                                        
                                                            X                                                                        
                                                            X                                                                        
                                                            X                                                                        
                                                            X                                                                        
                                                            X                                                                        
                                                            X                                                                        
                                                            X                                                                        
                                                            X                                                                        
                                                            X                                                                        
                                                            X                                                                        
                                                            X                                                                        
                                                            X                                                                        
                                                            X                                                                        
                                                            X                                                                        
                                                            X                                                                        
                                                            X                                                                        
                                                            X                                                                        
 
 ***** Axes restored to original set *****
 -------------------------------------------------------------------
 Center     Atomic                   Forces (Hartrees/Bohr)
 Number     Number              X              Y              Z
 -------------------------------------------------------------------
      1        6           0.000000000    0.000000000   -0.000000000
      2        8          -0.000000024    0.000000000    0.000000000
      3        8           0.000000024   -0.000000000    0.000000000
 -------------------------------------------------------------------
 Cartesian Forces:  Max     0.000000024 RMS     0.000000011
 Force constants in Cartesian coordinates: 
                1             2             3             4             5 
      1  0.190259D+01
      2  0.000000D+00  0.150762D+00
      3  0.000000D+00  0.000000D+00  0.150762D+00
      4 -0.951294D+00  0.000000D+00  0.000000D+00  0.103899D+01
      5  0.000000D+00 -0.753810D-01  0.000000D+00  0.000000D+00  0.376914D-01
      6  0.000000D+00  0.000000D+00 -0.753810D-01  0.000000D+00  0.000000D+00
      7 -0.951294D+00  0.000000D+00  0.000000D+00 -0.876988D-01  0.000000D+00
      8  0.000000D+00 -0.753810D-01  0.000000D+00  0.000000D+00  0.376896D-01
      9  0.000000D+00  0.000000D+00 -0.753810D-01  0.000000D+00  0.000000D+00
                6             7             8             9 
      6  0.376914D-01
      7  0.000000D+00  0.103899D+01
      8  0.000000D+00  0.000000D+00  0.376914D-01
      9  0.376896D-01  0.000000D+00  0.000000D+00  0.376914D-01
 FormGI is forming the generalized inverse of G from B-inverse, IUseBI=4.
 Force constants in internal coordinates: 
                1             2             3             4 
      1  0.103899D+01
      2  0.876988D-01  0.103899D+01
      3  0.000000D+00  0.000000D+00  0.181223D+00
      4  0.000000D+00  0.000000D+00  0.000000D+00  0.181223D+00
 Leave Link  716 at Fri Sep  6 10:18:22 2024, MaxMem=  1073741824 cpu:               0.1 elap:               0.0
 (Enter /Users/asuyarger/Applications/G16/g16/l103.exe)

 GradGradGradGradGradGradGradGradGradGradGradGradGradGradGradGradGradGrad
 Berny optimization.
 Red2BG is reusing G-inverse.
 Internal  Forces:  Max     0.000000024 RMS     0.000000017
 Search for a local minimum.
 Step number   1 out of a maximum of    2
 All quantities printed in internal units (Hartrees-Bohrs-Radians)
 Second derivative matrix not updated -- analytic derivatives used.
 The second derivative matrix:
                          R1        R2        A1        A2
           R1           1.03899
           R2           0.08770   1.03899
           A1          -0.00000  -0.00000   0.18122
           A2          -0.00000  -0.00000   0.00000   0.18122
 ITU=  0
     Eigenvalues ---    0.18122   0.18122   0.95129   1.12669
 Angle between quadratic step and forces=  90.00 degrees.
 Linear search not attempted -- first point.
 Iteration  1 RMS(Cart)=  0.00000002 RMS(Int)=  0.00000000
 ITry= 1 IFail=0 DXMaxC= 2.13D-08 DCOld= 1.00D+10 DXMaxT= 3.00D-01 DXLimC= 3.00D+00 Rises=F
 ClnCor:  largest displacement from symmetrization is 3.12D-14 for atom     1.
 Variable       Old X    -DE/DX   Delta X   Delta X   Delta X     New X
                                 (Linear)    (Quad)   (Total)
    R1        2.19276  -0.00000   0.00000  -0.00000  -0.00000   2.19276
    R2        2.19276  -0.00000   0.00000  -0.00000  -0.00000   2.19276
    A1        3.14159  -0.00000   0.00000  -0.00000   0.00000   3.14159
    A2        3.14159  -0.00000   0.00000  -0.00000   0.00000   3.14159
         Item               Value     Threshold  Converged?
 Maximum Force            0.000000     0.000015     YES
 RMS     Force            0.000000     0.000010     YES
 Maximum Displacement     0.000000     0.000060     YES
 RMS     Displacement     0.000000     0.000040     YES
 Predicted change in Energy=-5.119543D-16
 Optimization completed.
    -- Stationary point found.
                           ----------------------------
                           !   Optimized Parameters   !
                           ! (Angstroms and Degrees)  !
 --------------------------                            --------------------------
 ! Name  Definition              Value          Derivative Info.                !
 --------------------------------------------------------------------------------
 ! R1    R(1,2)                  1.1604         -DE/DX =    0.0                 !
 ! R2    R(1,3)                  1.1604         -DE/DX =    0.0                 !
 ! A1    L(2,1,3,-2,-1)        180.0            -DE/DX =    0.0                 !
 ! A2    L(2,1,3,-3,-2)        180.0            -DE/DX =    0.0                 !
 --------------------------------------------------------------------------------
 GradGradGradGradGradGradGradGradGradGradGradGradGradGradGradGradGradGrad

 Leave Link  103 at Fri Sep  6 10:18:22 2024, MaxMem=  1073741824 cpu:               0.0 elap:               0.0
 (Enter /Users/asuyarger/Applications/G16/g16/l9999.exe)
 Dipole is zero, so no output in dipole orientation.

 ----------------------------------------------------------------------

 Electric dipole moment (input orientation):
 (Debye = 10**-18 statcoulomb cm , SI units = C m)
                  (au)            (Debye)         (10**-30 SI)
   Tot        0.000000D+00      0.000000D+00      0.000000D+00
   x          0.000000D+00      0.000000D+00      0.000000D+00
   y          0.000000D+00      0.000000D+00      0.000000D+00
   z          0.000000D+00      0.000000D+00      0.000000D+00

 Dipole polarizability, Alpha (input orientation).
 (esu units = cm**3 , SI units = C**2 m**2 J**-1)
 Alpha(0;0):
               (au)            (10**-24 esu)      (10**-40 SI)
   iso        0.156131D+02      0.231362D+01      0.257425D+01
   aniso      0.151071D+02      0.223864D+01      0.249083D+01
   xx         0.256845D+02      0.380605D+01      0.423480D+01
   yx         0.000000D+00      0.000000D+00      0.000000D+00
   yy         0.105774D+02      0.156741D+01      0.174398D+01
   zx         0.000000D+00      0.000000D+00      0.000000D+00
   zy         0.000000D+00      0.000000D+00      0.000000D+00
   zz         0.105774D+02      0.156741D+01      0.174398D+01

 ----------------------------------------------------------------------
 1\1\GINC-JEFFSMACSTUDIO\Freq\RB3LYP\6-311++G(2d,3p)\C1O2\ROOT\06-Sep-2
 024\0\\#P Geom=AllCheck Guess=TCheck SCRF=Check GenChk RB3LYP/6-311++G
 (2d,3p) Freq\\CO2 DFT 6-311++g(2d,3p) Opt Freq - Full - NBO\\0,1\C,2.9
 2043382,0.67811934,0.\O,4.0807915814,0.67811934,0.\O,1.7600760586,0.67
 811934,0.\\Version=EM64M-G16RevA.03\State=1-SGG\HF=-188.6506397\RMSD=3
 .545e-10\RMSF=1.132e-08\ZeroPoint=0.0116549\Thermal=0.0142697\Dipole=0
 .,0.,0.\DipoleDeriv=2.4638682,0.,0.,0.,0.5107146,0.,0.,0.,0.5107146,-1
 .2319341,0.,0.,0.,-0.2553573,0.,0.,0.,-0.2553573,-1.2319341,0.,0.,0.,-
 0.2553573,0.,0.,0.,-0.2553573\Polar=25.684518,0.,10.5773954,0.,0.,10.5
 773954\PolarDeriv=0.,0.,0.,0.,0.,0.,0.,0.,0.,0.,0.,0.,0.,0.,0.,0.,0.,0
 .,11.5641394,0.,2.4356414,0.,0.,2.4356414,0.,3.4449078,0.,0.,0.,0.,0.,
 0.,0.,3.4449078,0.,0.,-11.5641394,0.,-2.4356414,0.,0.,-2.4356414,0.,-3
 .4449078,0.,0.,0.,0.,0.,0.,0.,-3.4449078,0.,0.\HyperPolar=0.,0.,0.,0.,
 0.,0.,0.,0.,0.,0.\Quadrupole=-2.1675316,1.0837658,1.0837658,0.,0.,0.\P
 G=D*H [O(C1),C*(O1.O1)]\NImag=0\\1.90258853,0.,0.15076199,0.,0.,0.1507
 6199,-0.95129427,0.,0.,1.03899305,0.,-0.07538099,0.,0.,0.03769135,0.,0
 .,-0.07538099,0.,0.,0.03769135,-0.95129427,0.,0.,-0.08769878,0.,0.,1.0
 3899305,0.,-0.07538099,0.,0.,0.03768964,0.,0.,0.03769135,0.,0.,-0.0753
 8099,0.,0.,0.03768964,0.,0.,0.03769135\\0.,0.,0.,0.00000002,0.,0.,-0.0
 0000002,0.,0.\\\@


 A HARD FALL SHOULD MEAN A HIGH BOUNCE 
 IF ONE IS MADE OF THE RIGHT MATERIAL.

                -- THE CHEMIST ANALYST, MARCH 1950
 Job cpu time:       0 days  0 hours  0 minutes  4.1 seconds.
 Elapsed time:       0 days  0 hours  0 minutes  3.8 seconds.
 File lengths (MBytes):  RWF=      7 Int=      0 D2E=      0 Chk=      2 Scr=      1
 Normal termination of Gaussian 16 at Fri Sep  6 10:18:22 2024.
