 Entering Gaussian System, Link 0=g16
 Input=/Users/asuyarger/Downloads/CO2_HF_6311pp2d3p_Opt_Freq_Full_NBO.gjf
 Output=/Users/asuyarger/Downloads/CO2_HF_6311pp2d3p_Opt_Freq_Full_NBO.log
 Initial command:
 /Users/asuyarger/Applications/G16/g16/l1.exe "/Users/asuyarger/Applications/G16/scratch/Gau-88660.inp" -scrdir="/Users/asuyarger/Applications/G16/scratch/"
 Entering Link 1 = /Users/asuyarger/Applications/G16/g16/l1.exe PID=     88661.
  
 Copyright (c) 1988,1990,1992,1993,1995,1998,2003,2009,2016,
            Gaussian, Inc.  All Rights Reserved.
  
 This is part of the Gaussian(R) 16 program.  It is based on
 the Gaussian(R) 09 system (copyright 2009, Gaussian, Inc.),
 the Gaussian(R) 03 system (copyright 2003, Gaussian, Inc.),
 the Gaussian(R) 98 system (copyright 1998, Gaussian, Inc.),
 the Gaussian(R) 94 system (copyright 1995, Gaussian, Inc.),
 the Gaussian 92(TM) system (copyright 1992, Gaussian, Inc.),
 the Gaussian 90(TM) system (copyright 1990, Gaussian, Inc.),
 the Gaussian 88(TM) system (copyright 1988, Gaussian, Inc.),
 the Gaussian 86(TM) system (copyright 1986, Carnegie Mellon
 University), and the Gaussian 82(TM) system (copyright 1983,
 Carnegie Mellon University). Gaussian is a federally registered
 trademark of Gaussian, Inc.
  
 This software contains proprietary and confidential information,
 including trade secrets, belonging to Gaussian, Inc.
  
 This software is provided under written license and may be
 used, copied, transmitted, or stored only in accord with that
 written license.
  
 The following legend is applicable only to US Government
 contracts under FAR:
  
                    RESTRICTED RIGHTS LEGEND
  
 Use, reproduction and disclosure by the US Government is
 subject to restrictions as set forth in subparagraphs (a)
 and (c) of the Commercial Computer Software - Restricted
 Rights clause in FAR 52.227-19.
  
 Gaussian, Inc.
 340 Quinnipiac St., Bldg. 40, Wallingford CT 06492
  
  
 ---------------------------------------------------------------
 Warning -- This program may not be used in any manner that
 competes with the business of Gaussian, Inc. or will provide
 assistance to any competitor of Gaussian, Inc.  The licensee
 of this program is prohibited from giving any competitor of
 Gaussian, Inc. access to this program.  By using this program,
 the user acknowledges that Gaussian, Inc. is engaged in the
 business of creating and licensing software in the field of
 computational chemistry and represents and warrants to the
 licensee that it is not a competitor of Gaussian, Inc. and that
 it will not use this program in any manner prohibited above.
 ---------------------------------------------------------------
  

 Cite this work as:
 Gaussian 16, Revision A.03,
 M. J. Frisch, G. W. Trucks, H. B. Schlegel, G. E. Scuseria, 
 M. A. Robb, J. R. Cheeseman, G. Scalmani, V. Barone, 
 G. A. Petersson, H. Nakatsuji, X. Li, M. Caricato, A. V. Marenich, 
 J. Bloino, B. G. Janesko, R. Gomperts, B. Mennucci, H. P. Hratchian, 
 J. V. Ortiz, A. F. Izmaylov, J. L. Sonnenberg, D. Williams-Young, 
 F. Ding, F. Lipparini, F. Egidi, J. Goings, B. Peng, A. Petrone, 
 T. Henderson, D. Ranasinghe, V. G. Zakrzewski, J. Gao, N. Rega, 
 G. Zheng, W. Liang, M. Hada, M. Ehara, K. Toyota, R. Fukuda, 
 J. Hasegawa, M. Ishida, T. Nakajima, Y. Honda, O. Kitao, H. Nakai, 
 T. Vreven, K. Throssell, J. A. Montgomery, Jr., J. E. Peralta, 
 F. Ogliaro, M. J. Bearpark, J. J. Heyd, E. N. Brothers, K. N. Kudin, 
 V. N. Staroverov, T. A. Keith, R. Kobayashi, J. Normand, 
 K. Raghavachari, A. P. Rendell, J. C. Burant, S. S. Iyengar, 
 J. Tomasi, M. Cossi, J. M. Millam, M. Klene, C. Adamo, R. Cammi, 
 J. W. Ochterski, R. L. Martin, K. Morokuma, O. Farkas, 
 J. B. Foresman, and D. J. Fox, Gaussian, Inc., Wallingford CT, 2016.
 
 ******************************************
 Gaussian 16:  EM64M-G16RevA.03 25-Dec-2016
                 6-Sep-2024 
 ******************************************
 %nprocshared=8
 Will use up to    8 processors via shared memory.
 %mem=8GB
 %chk=CO2_HF_6311pp2d3p_Opt_Freq_Full_NBO.chk
 ----------------------------------------------------------------------
 #p opt=tight freq=raman hf/6-311++g(2d,3p) guess=save pop=(hirshfeld,f
 ull,nbo) geom=connectivity polar
 ----------------------------------------------------------------------
 1/7=10,18=20,19=15,38=1,57=2/1,3;
 2/9=110,12=2,17=6,18=5,40=1/2;
 3/5=4,6=6,7=1512,11=9,25=1,30=1,71=1/1,2,3;
 4//1;
 5/5=2,38=5,98=1/2;
 6/7=3,28=1,40=1,79=1/1,7;
 7//1,2,3,16;
 1/7=10,18=20,19=15/3(2);
 2/9=110/2;
 99//99;
 2/9=110/2;
 3/5=4,6=6,7=1512,11=9,25=1,30=1,71=1/1,2,3;
 4/5=5,16=3,69=1/1;
 5/5=2,38=5,98=1/2;
 7//1,2,3,16;
 1/7=10,18=20,19=15/3(-5);
 2/9=110/2;
 6/7=3,19=2,28=1,40=1,79=1/1,7;
 99/9=1/99;
 Leave Link    1 at Fri Sep  6 10:17:20 2024, MaxMem=  1073741824 cpu:               0.2 elap:               0.0
 (Enter /Users/asuyarger/Applications/G16/g16/l101.exe)
 --------------------------------------------
 CO2 HF 6-311++g(2d,3p) Opt Freq - Full - NBO
 --------------------------------------------
 Symbolic Z-matrix:
 Charge =  0 Multiplicity = 1
 C                     2.92043   0.67812   0. 
 O                     4.17883   0.67812   0. 
 O                     1.66203   0.67812   0. 
 
 ITRead=  0  0  0
 MicOpt= -1 -1 -1
 NAtoms=      3 NQM=        3 NQMF=       0 NMMI=      0 NMMIF=      0
                NMic=       0 NMicF=      0.
                    Isotopes and Nuclear Properties:
 (Nuclear quadrupole moments (NQMom) in fm**2, nuclear magnetic moments (NMagM)
  in nuclear magnetons)

  Atom         1           2           3
 IAtWgt=          12          16          16
 AtmWgt=  12.0000000  15.9949146  15.9949146
 NucSpn=           0           0           0
 AtZEff=  -0.0000000  -0.0000000  -0.0000000
 NQMom=    0.0000000   0.0000000   0.0000000
 NMagM=    0.0000000   0.0000000   0.0000000
 AtZNuc=   6.0000000   8.0000000   8.0000000
 Leave Link  101 at Fri Sep  6 10:17:21 2024, MaxMem=  1073741824 cpu:               1.2 elap:               0.2
 (Enter /Users/asuyarger/Applications/G16/g16/l103.exe)

 GradGradGradGradGradGradGradGradGradGradGradGradGradGradGradGradGradGrad
 Berny optimization.
 Initialization pass.
                           ----------------------------
                           !    Initial Parameters    !
                           ! (Angstroms and Degrees)  !
 --------------------------                            --------------------------
 ! Name  Definition              Value          Derivative Info.                !
 --------------------------------------------------------------------------------
 ! R1    R(1,2)                  1.2584         estimate D2E/DX2                !
 ! R2    R(1,3)                  1.2584         estimate D2E/DX2                !
 ! A1    L(2,1,3,-2,-1)        180.0            estimate D2E/DX2                !
 ! A2    L(2,1,3,-3,-2)        180.0            estimate D2E/DX2                !
 --------------------------------------------------------------------------------
 Trust Radius=3.00D-01 FncErr=1.00D-07 GrdErr=1.00D-07 EigMax=2.50D+02 EigMin=1.00D-04
 Number of steps in this run=     20 maximum allowed number of steps=    100.
 GradGradGradGradGradGradGradGradGradGradGradGradGradGradGradGradGradGrad

 Leave Link  103 at Fri Sep  6 10:17:21 2024, MaxMem=  1073741824 cpu:               0.0 elap:               0.0
 (Enter /Users/asuyarger/Applications/G16/g16/l202.exe)
                          Input orientation:                          
 ---------------------------------------------------------------------
 Center     Atomic      Atomic             Coordinates (Angstroms)
 Number     Number       Type             X           Y           Z
 ---------------------------------------------------------------------
      1          6           0        2.920434    0.678119    0.000000
      2          8           0        4.178834    0.678119    0.000000
      3          8           0        1.662034    0.678119    0.000000
 ---------------------------------------------------------------------
                    Distance matrix (angstroms):
                    1          2          3
     1  C    0.000000
     2  O    1.258400   0.000000
     3  O    1.258400   2.516800   0.000000
 Stoichiometry    CO2
 Framework group  D*H[O(C),C*(O.O)]
 Deg. of freedom     1
 Full point group                 D*H     NOp   8
 Largest Abelian subgroup         D2H     NOp   8
 Largest concise Abelian subgroup C2      NOp   2
                         Standard orientation:                         
 ---------------------------------------------------------------------
 Center     Atomic      Atomic             Coordinates (Angstroms)
 Number     Number       Type             X           Y           Z
 ---------------------------------------------------------------------
      1          6           0        0.000000    0.000000    0.000000
      2          8           0        0.000000    0.000000    1.258400
      3          8           0        0.000000    0.000000   -1.258400
 ---------------------------------------------------------------------
 Rotational constants (GHZ):           0.0000000           9.9762623           9.9762623
 Leave Link  202 at Fri Sep  6 10:17:21 2024, MaxMem=  1073741824 cpu:               0.0 elap:               0.0
 (Enter /Users/asuyarger/Applications/G16/g16/l301.exe)
 Standard basis: 6-311++G(2d,3p) (5D, 7F)
 Ernie: Thresh=  0.10000D-02 Tol=  0.10000D-05 Strict=F.
 There are    26 symmetry adapted cartesian basis functions of AG  symmetry.
 There are     4 symmetry adapted cartesian basis functions of B1G symmetry.
 There are     8 symmetry adapted cartesian basis functions of B2G symmetry.
 There are     8 symmetry adapted cartesian basis functions of B3G symmetry.
 There are     2 symmetry adapted cartesian basis functions of AU  symmetry.
 There are    19 symmetry adapted cartesian basis functions of B1U symmetry.
 There are    10 symmetry adapted cartesian basis functions of B2U symmetry.
 There are    10 symmetry adapted cartesian basis functions of B3U symmetry.
 There are    22 symmetry adapted basis functions of AG  symmetry.
 There are     4 symmetry adapted basis functions of B1G symmetry.
 There are     8 symmetry adapted basis functions of B2G symmetry.
 There are     8 symmetry adapted basis functions of B3G symmetry.
 There are     2 symmetry adapted basis functions of AU  symmetry.
 There are    17 symmetry adapted basis functions of B1U symmetry.
 There are    10 symmetry adapted basis functions of B2U symmetry.
 There are    10 symmetry adapted basis functions of B3U symmetry.
    81 basis functions,   126 primitive gaussians,    87 cartesian basis functions
    11 alpha electrons       11 beta electrons
       nuclear repulsion energy        53.8260354401 Hartrees.
 IExCor=    0 DFT=F Ex=HF Corr=None ExCW=0 ScaHFX=  1.000000
 ScaDFX=  1.000000  1.000000  1.000000  1.000000 ScalE2=  1.000000  1.000000
 IRadAn=      5 IRanWt=     -1 IRanGd=            0 ICorTp=0 IEmpDi=  4
 NAtoms=    3 NActive=    3 NUniq=    2 SFac= 2.25D+00 NAtFMM=   60 NAOKFM=F Big=F
 Integral buffers will be    131072 words long.
 Raffenetti 1 integral format.
 Two-electron integral symmetry is turned on.
 Leave Link  301 at Fri Sep  6 10:17:21 2024, MaxMem=  1073741824 cpu:               0.1 elap:               0.0
 (Enter /Users/asuyarger/Applications/G16/g16/l302.exe)
 NPDir=0 NMtPBC=     1 NCelOv=     1 NCel=       1 NClECP=     1 NCelD=      1
         NCelK=      1 NCelE2=     1 NClLst=     1 CellRange=     0.0.
 One-electron integrals computed using PRISM.
 One-electron integral symmetry used in STVInt
 NBasis=    81 RedAO= T EigKep=  1.14D-03  NBF=    22     4     8     8     2    17    10    10
 NBsUse=    81 1.00D-06 EigRej= -1.00D+00 NBFU=    22     4     8     8     2    17    10    10
 Leave Link  302 at Fri Sep  6 10:17:21 2024, MaxMem=  1073741824 cpu:               0.5 elap:               0.1
 (Enter /Users/asuyarger/Applications/G16/g16/l303.exe)
 DipDrv:  MaxL=1.
 Leave Link  303 at Fri Sep  6 10:17:21 2024, MaxMem=  1073741824 cpu:               0.1 elap:               0.0
 (Enter /Users/asuyarger/Applications/G16/g16/l401.exe)
 ExpMin= 4.38D-02 ExpMax= 8.59D+03 ExpMxC= 1.30D+03 IAcc=3 IRadAn=         5 AccDes= 0.00D+00
 Harris functional with IExCor=  205 and IRadAn=       5 diagonalized for initial guess.
 HarFok:  IExCor=  205 AccDes= 0.00D+00 IRadAn=         5 IDoV= 1 UseB2=F ITyADJ=14
 ICtDFT=  3500011 ScaDFX=  1.000000  1.000000  1.000000  1.000000
 FoFCou: FMM=F IPFlag=           0 FMFlag=      100000 FMFlg1=           0
         NFxFlg=           0 DoJE=T BraDBF=F KetDBF=T FulRan=T
         wScrn=  0.000000 ICntrl=       500 IOpCl=  0 I1Cent=   200000004 NGrid=           0
         NMat0=    1 NMatS0=      1 NMatT0=    0 NMatD0=    1 NMtDS0=    0 NMtDT0=    0
 Petite list used in FoFCou.
 Harris En= -187.683719615582    
 JPrj=0 DoOrth=F DoCkMO=F.
 Initial guess orbital symmetries:
       Occupied  (SGU) (SGG) (SGG) (SGG) (SGU) (SGG) (SGU) (PIU)
                 (PIU) (PIG) (PIG)
       Virtual   (PIU) (PIU) (SGG) (SGU) (PIU) (PIU) (SGG) (SGG)
                 (PIG) (PIG) (SGU) (PIU) (PIU) (SGU) (SGG) (PIU)
                 (PIU) (DLTG) (DLTG) (SGU) (SGU) (SGG) (PIG) (PIG)
                 (SGG) (PIG) (PIG) (PIU) (PIU) (SGU) (SGG) (DLTU)
                 (DLTU) (DLTG) (DLTG) (PIU) (PIU) (SGU) (SGG) (SGG)
                 (PIG) (PIG) (SGU) (PIU) (PIU) (DLTG) (DLTG) (PIG)
                 (PIG) (SGU) (SGG) (PIG) (PIG) (PIU) (PIU) (SGU)
                 (SGG) (DLTU) (DLTU) (DLTG) (DLTG) (PIU) (PIU)
                 (SGG) (PIG) (PIG) (SGU) (SGG) (SGG) (SGU)
 The electronic state of the initial guess is 1-SGG.
 Leave Link  401 at Fri Sep  6 10:17:21 2024, MaxMem=  1073741824 cpu:               0.7 elap:               0.1
 (Enter /Users/asuyarger/Applications/G16/g16/l502.exe)
 Keep R1 ints in memory in symmetry-blocked form, NReq=7193325.
 FoFCou: FMM=F IPFlag=           0 FMFlag=           0 FMFlg1=           0
         NFxFlg=           0 DoJE=F BraDBF=F KetDBF=F FulRan=T
         wScrn=  0.000000 ICntrl=       600 IOpCl=  0 I1Cent=           0 NGrid=           0
         NMat0=    1 NMatS0=   3321 NMatT0=    0 NMatD0=    1 NMtDS0=    0 NMtDT0=    0
 Petite list used in FoFCou.
 Closed shell SCF:
 Using DIIS extrapolation, IDIIS=  1040.
 NGot=  1073741824 LenX=  1072976188 LenY=  1072968178
 Requested convergence on RMS density matrix=1.00D-08 within 128 cycles.
 Requested convergence on MAX density matrix=1.00D-06.
 Requested convergence on             energy=1.00D-06.
 No special actions if energy rises.

 Cycle   1  Pass 1  IDiag  1:
 E= -187.550539205457    
 DIIS: error= 8.21D-02 at cycle   1 NSaved=   1.
 NSaved= 1 IEnMin= 1 EnMin= -187.550539205457     IErMin= 1 ErrMin= 8.21D-02
 ErrMax= 8.21D-02  0.00D+00 EMaxC= 1.00D-01 BMatC= 3.09D-01 BMatP= 3.09D-01
 IDIUse=3 WtCom= 1.79D-01 WtEn= 8.21D-01
 Coeff-Com:  0.100D+01
 Coeff-En:   0.100D+01
 Coeff:      0.100D+01
 Gap=     0.581 Goal=   None    Shift=    0.000
 GapD=    0.581 DampG=2.000 DampE=0.500 DampFc=1.0000 IDamp=-1.
 RMSDP=3.09D-03 MaxDP=6.36D-02              OVMax= 8.18D-02

 Cycle   2  Pass 1  IDiag  1:
 E= -187.598184265574     Delta-E=       -0.047645060117 Rises=F Damp=F
 DIIS: error= 3.01D-02 at cycle   2 NSaved=   2.
 NSaved= 2 IEnMin= 2 EnMin= -187.598184265574     IErMin= 2 ErrMin= 3.01D-02
 ErrMax= 3.01D-02  0.00D+00 EMaxC= 1.00D-01 BMatC= 6.10D-02 BMatP= 3.09D-01
 IDIUse=3 WtCom= 6.99D-01 WtEn= 3.01D-01
 Coeff-Com:  0.247D+00 0.753D+00
 Coeff-En:   0.215D+00 0.785D+00
 Coeff:      0.238D+00 0.762D+00
 Gap=     0.614 Goal=   None    Shift=    0.000
 RMSDP=2.17D-03 MaxDP=4.62D-02 DE=-4.76D-02 OVMax= 8.15D-02

 Cycle   3  Pass 1  IDiag  1:
 E= -187.632833407587     Delta-E=       -0.034649142014 Rises=F Damp=F
 DIIS: error= 1.68D-02 at cycle   3 NSaved=   3.
 NSaved= 3 IEnMin= 3 EnMin= -187.632833407587     IErMin= 3 ErrMin= 1.68D-02
 ErrMax= 1.68D-02  0.00D+00 EMaxC= 1.00D-01 BMatC= 1.27D-02 BMatP= 6.10D-02
 IDIUse=3 WtCom= 8.32D-01 WtEn= 1.68D-01
 Coeff-Com: -0.321D-01 0.294D+00 0.738D+00
 Coeff-En:   0.000D+00 0.654D-01 0.935D+00
 Coeff:     -0.267D-01 0.256D+00 0.771D+00
 Gap=     0.591 Goal=   None    Shift=    0.000
 RMSDP=7.50D-04 MaxDP=2.25D-02 DE=-3.46D-02 OVMax= 2.12D-02

 Cycle   4  Pass 1  IDiag  1:
 E= -187.641006626280     Delta-E=       -0.008173218693 Rises=F Damp=F
 DIIS: error= 1.85D-03 at cycle   4 NSaved=   4.
 NSaved= 4 IEnMin= 4 EnMin= -187.641006626280     IErMin= 4 ErrMin= 1.85D-03
 ErrMax= 1.85D-03  0.00D+00 EMaxC= 1.00D-01 BMatC= 1.23D-04 BMatP= 1.27D-02
 IDIUse=3 WtCom= 9.81D-01 WtEn= 1.85D-02
 Coeff-Com:  0.582D-02-0.960D-01-0.125D+00 0.122D+01
 Coeff-En:   0.000D+00 0.000D+00 0.000D+00 0.100D+01
 Coeff:      0.571D-02-0.942D-01-0.123D+00 0.121D+01
 Gap=     0.593 Goal=   None    Shift=    0.000
 RMSDP=1.04D-04 MaxDP=1.46D-03 DE=-8.17D-03 OVMax= 5.72D-03

 Cycle   5  Pass 1  IDiag  1:
 E= -187.641172382902     Delta-E=       -0.000165756622 Rises=F Damp=F
 DIIS: error= 6.24D-04 at cycle   5 NSaved=   5.
 NSaved= 5 IEnMin= 5 EnMin= -187.641172382902     IErMin= 5 ErrMin= 6.24D-04
 ErrMax= 6.24D-04  0.00D+00 EMaxC= 1.00D-01 BMatC= 6.61D-06 BMatP= 1.23D-04
 IDIUse=3 WtCom= 9.94D-01 WtEn= 6.24D-03
 Coeff-Com:  0.241D-02-0.212D-01-0.656D-01 0.120D-01 0.107D+01
 Coeff-En:   0.000D+00 0.000D+00 0.000D+00 0.000D+00 0.100D+01
 Coeff:      0.240D-02-0.210D-01-0.652D-01 0.119D-01 0.107D+01
 Gap=     0.593 Goal=   None    Shift=    0.000
 RMSDP=4.01D-05 MaxDP=1.36D-03 DE=-1.66D-04 OVMax= 1.33D-03

 Cycle   6  Pass 1  IDiag  1:
 E= -187.641182829809     Delta-E=       -0.000010446907 Rises=F Damp=F
 DIIS: error= 9.70D-05 at cycle   6 NSaved=   6.
 NSaved= 6 IEnMin= 6 EnMin= -187.641182829809     IErMin= 6 ErrMin= 9.70D-05
 ErrMax= 9.70D-05  0.00D+00 EMaxC= 1.00D-01 BMatC= 3.53D-07 BMatP= 6.61D-06
 IDIUse=1 WtCom= 1.00D+00 WtEn= 0.00D+00
 Coeff-Com: -0.805D-03 0.119D-01 0.203D-01-0.111D+00-0.180D+00 0.126D+01
 Coeff:     -0.805D-03 0.119D-01 0.203D-01-0.111D+00-0.180D+00 0.126D+01
 Gap=     0.593 Goal=   None    Shift=    0.000
 RMSDP=1.44D-05 MaxDP=3.05D-04 DE=-1.04D-05 OVMax= 4.77D-04

 Cycle   7  Pass 1  IDiag  1:
 E= -187.641183748085     Delta-E=       -0.000000918276 Rises=F Damp=F
 DIIS: error= 1.97D-05 at cycle   7 NSaved=   7.
 NSaved= 7 IEnMin= 7 EnMin= -187.641183748085     IErMin= 7 ErrMin= 1.97D-05
 ErrMax= 1.97D-05  0.00D+00 EMaxC= 1.00D-01 BMatC= 1.32D-08 BMatP= 3.53D-07
 IDIUse=1 WtCom= 1.00D+00 WtEn= 0.00D+00
 Coeff-Com:  0.116D-03-0.210D-02-0.305D-02 0.245D-01 0.358D-01-0.414D+00
 Coeff-Com:  0.136D+01
 Coeff:      0.116D-03-0.210D-02-0.305D-02 0.245D-01 0.358D-01-0.414D+00
 Coeff:      0.136D+01
 Gap=     0.594 Goal=   None    Shift=    0.000
 RMSDP=3.10D-06 MaxDP=5.88D-05 DE=-9.18D-07 OVMax= 9.44D-05

 Cycle   8  Pass 1  IDiag  1:
 E= -187.641183774513     Delta-E=       -0.000000026428 Rises=F Damp=F
 DIIS: error= 1.44D-06 at cycle   8 NSaved=   8.
 NSaved= 8 IEnMin= 8 EnMin= -187.641183774513     IErMin= 8 ErrMin= 1.44D-06
 ErrMax= 1.44D-06  0.00D+00 EMaxC= 1.00D-01 BMatC= 1.11D-10 BMatP= 1.32D-08
 IDIUse=1 WtCom= 1.00D+00 WtEn= 0.00D+00
 Coeff-Com: -0.918D-05 0.171D-03 0.217D-03-0.272D-02-0.146D-02 0.411D-01
 Coeff-Com: -0.185D+00 0.115D+01
 Coeff:     -0.918D-05 0.171D-03 0.217D-03-0.272D-02-0.146D-02 0.411D-01
 Coeff:     -0.185D+00 0.115D+01
 Gap=     0.594 Goal=   None    Shift=    0.000
 RMSDP=1.59D-07 MaxDP=2.11D-06 DE=-2.64D-08 OVMax= 4.47D-06

 Cycle   9  Pass 1  IDiag  1:
 E= -187.641183774684     Delta-E=       -0.000000000171 Rises=F Damp=F
 DIIS: error= 3.05D-07 at cycle   9 NSaved=   9.
 NSaved= 9 IEnMin= 9 EnMin= -187.641183774684     IErMin= 9 ErrMin= 3.05D-07
 ErrMax= 3.05D-07  0.00D+00 EMaxC= 1.00D-01 BMatC= 2.13D-12 BMatP= 1.11D-10
 IDIUse=1 WtCom= 1.00D+00 WtEn= 0.00D+00
 Coeff-Com: -0.652D-06 0.151D-04 0.149D-04-0.148D-03-0.331D-03 0.427D-02
 Coeff-Com: -0.173D-01-0.681D-01 0.108D+01
 Coeff:     -0.652D-06 0.151D-04 0.149D-04-0.148D-03-0.331D-03 0.427D-02
 Coeff:     -0.173D-01-0.681D-01 0.108D+01
 Gap=     0.594 Goal=   None    Shift=    0.000
 RMSDP=2.83D-08 MaxDP=4.17D-07 DE=-1.71D-10 OVMax= 7.57D-07

 Cycle  10  Pass 1  IDiag  1:
 E= -187.641183774688     Delta-E=       -0.000000000003 Rises=F Damp=F
 DIIS: error= 2.93D-08 at cycle  10 NSaved=  10.
 NSaved=10 IEnMin=10 EnMin= -187.641183774688     IErMin=10 ErrMin= 2.93D-08
 ErrMax= 2.93D-08  0.00D+00 EMaxC= 1.00D-01 BMatC= 3.04D-14 BMatP= 2.13D-12
 IDIUse=1 WtCom= 1.00D+00 WtEn= 0.00D+00
 Coeff-Com:  0.108D-06-0.247D-05-0.192D-05 0.379D-04 0.459D-04-0.103D-02
 Coeff-Com:  0.495D-02-0.110D-02-0.208D+00 0.120D+01
 Coeff:      0.108D-06-0.247D-05-0.192D-05 0.379D-04 0.459D-04-0.103D-02
 Coeff:      0.495D-02-0.110D-02-0.208D+00 0.120D+01
 Gap=     0.594 Goal=   None    Shift=    0.000
 RMSDP=7.98D-09 MaxDP=1.62D-07 DE=-3.44D-12 OVMax= 8.71D-08

 SCF Done:  E(RHF) =  -187.641183775     A.U. after   10 cycles
            NFock= 10  Conv=0.80D-08     -V/T= 2.0056
 KE= 1.865937193061D+02 PE=-5.499980683168D+02 EE= 1.219371297959D+02
 Leave Link  502 at Fri Sep  6 10:17:21 2024, MaxMem=  1073741824 cpu:               1.2 elap:               0.2
 (Enter /Users/asuyarger/Applications/G16/g16/l601.exe)
 Copying SCF densities to generalized density rwf, IOpCl= 0 IROHF=0.

 **********************************************************************

            Population analysis using the SCF density.

 **********************************************************************

 Orbital symmetries:
       Occupied  (SGU) (SGG) (SGG) (SGG) (SGU) (SGG) (SGU) (PIU)
                 (PIU) (PIG) (PIG)
       Virtual   (SGG) (PIU) (PIU) (SGU) (PIU) (PIU) (SGG) (SGG)
                 (PIG) (PIG) (SGU) (PIU) (PIU) (SGU) (SGG) (PIU)
                 (PIU) (DLTG) (DLTG) (SGU) (SGG) (SGU) (PIG) (PIG)
                 (SGG) (PIG) (PIG) (PIU) (PIU) (SGU) (SGG) (DLTU)
                 (DLTU) (DLTG) (DLTG) (SGU) (PIU) (PIU) (SGG) (PIG)
                 (PIG) (SGG) (SGU) (PIU) (PIU) (DLTG) (DLTG) (PIG)
                 (PIG) (SGU) (SGG) (PIG) (PIG) (PIU) (PIU) (SGU)
                 (SGG) (DLTU) (DLTU) (DLTG) (DLTG) (PIU) (PIU)
                 (SGG) (PIG) (PIG) (SGU) (SGG) (SGG) (SGU)
 The electronic state is 1-SGG.
 Alpha  occ. eigenvalues --  -20.67742 -20.67738 -11.51616  -1.48294  -1.43246
 Alpha  occ. eigenvalues --   -0.81355  -0.72652  -0.67829  -0.67829  -0.54102
 Alpha  occ. eigenvalues --   -0.54102
 Alpha virt. eigenvalues --    0.05249   0.09557   0.09557   0.09977   0.14023
 Alpha virt. eigenvalues --    0.14023   0.23086   0.25025   0.27358   0.27358
 Alpha virt. eigenvalues --    0.31057   0.34369   0.34369   0.37711   0.43301
 Alpha virt. eigenvalues --    0.68605   0.68605   0.74340   0.74340   0.82530
 Alpha virt. eigenvalues --    0.84567   0.92690   1.08911   1.08911   1.10595
 Alpha virt. eigenvalues --    1.22445   1.22445   1.33747   1.33747   1.35533
 Alpha virt. eigenvalues --    1.53963   1.67230   1.67230   1.87159   1.87159
 Alpha virt. eigenvalues --    2.03948   2.05936   2.05936   2.21825   2.63052
 Alpha virt. eigenvalues --    2.63052   2.65324   2.96385   3.04570   3.04570
 Alpha virt. eigenvalues --    3.42424   3.42424   3.60225   3.60225   3.79881
 Alpha virt. eigenvalues --    4.09046   5.48081   5.48081   5.49627   5.49627
 Alpha virt. eigenvalues --    6.10957   6.28791   7.16570   7.16570   7.24793
 Alpha virt. eigenvalues --    7.24793   7.38166   7.38166   7.69301   7.70676
 Alpha virt. eigenvalues --    7.70676   7.72187  25.02549  51.49579  51.60518
     Molecular Orbital Coefficients:
                           1         2         3         4         5
                       (SGU)--O  (SGG)--O  (SGG)--O  (SGG)--O  (SGU)--O
     Eigenvalues --   -20.67742 -20.67738 -11.51616  -1.48294  -1.43246
   1 1   C  1S          0.00000   0.00001   0.56375  -0.07245   0.00000
   2        2S          0.00000  -0.00016   0.46672  -0.11814   0.00000
   3        2PX         0.00000   0.00000   0.00000   0.00000   0.00000
   4        2PY         0.00000   0.00000   0.00000   0.00000   0.00000
   5        2PZ         0.00003   0.00000   0.00000   0.00000   0.13036
   6        3S          0.00000   0.00056   0.00257   0.30004   0.00000
   7        3PX         0.00000   0.00000   0.00000   0.00000   0.00000
   8        3PY         0.00000   0.00000   0.00000   0.00000   0.00000
   9        3PZ         0.00127   0.00000   0.00000   0.00000   0.15863
  10        4S          0.00000   0.00152   0.00037   0.18044   0.00000
  11        4PX         0.00000   0.00000   0.00000   0.00000   0.00000
  12        4PY         0.00000   0.00000   0.00000   0.00000   0.00000
  13        4PZ         0.00122   0.00000   0.00000   0.00000  -0.11122
  14        5S          0.00000  -0.00028  -0.00002   0.03003   0.00000
  15        5PX         0.00000   0.00000   0.00000   0.00000   0.00000
  16        5PY         0.00000   0.00000   0.00000   0.00000   0.00000
  17        5PZ        -0.00016   0.00000   0.00000   0.00000   0.00232
  18        6D 0        0.00000   0.00021   0.00068   0.02805   0.00000
  19        6D+1        0.00000   0.00000   0.00000   0.00000   0.00000
  20        6D-1        0.00000   0.00000   0.00000   0.00000   0.00000
  21        6D+2        0.00000  -0.00000  -0.00000  -0.00000   0.00000
  22        6D-2        0.00000   0.00000   0.00000   0.00000   0.00000
  23        7D 0        0.00000   0.00056   0.00021   0.05422   0.00000
  24        7D+1        0.00000   0.00000   0.00000   0.00000   0.00000
  25        7D-1        0.00000   0.00000   0.00000   0.00000   0.00000
  26        7D+2        0.00000   0.00000   0.00000   0.00000   0.00000
  27        7D-2        0.00000   0.00000   0.00000   0.00000   0.00000
  28 2   O  1S          0.39003   0.39003  -0.00015  -0.07332  -0.07988
  29        2S          0.33354   0.33356  -0.00022  -0.12236  -0.13341
  30        2PX         0.00000   0.00000   0.00000   0.00000   0.00000
  31        2PY         0.00000   0.00000   0.00000   0.00000   0.00000
  32        2PZ        -0.00139  -0.00139  -0.00025  -0.03986  -0.03593
  33        3S          0.00376   0.00357   0.00045   0.34783   0.37641
  34        3PX         0.00000   0.00000   0.00000   0.00000   0.00000
  35        3PY         0.00000   0.00000   0.00000   0.00000   0.00000
  36        3PZ         0.00063   0.00065  -0.00043  -0.06213  -0.06269
  37        4S         -0.00157  -0.00114  -0.00013   0.20652   0.34273
  38        4PX         0.00000   0.00000   0.00000   0.00000   0.00000
  39        4PY         0.00000   0.00000   0.00000   0.00000   0.00000
  40        4PZ         0.00043   0.00014   0.00009  -0.01455  -0.05581
  41        5S         -0.00004   0.00019  -0.00000  -0.04810   0.04950
  42        5PX         0.00000   0.00000   0.00000   0.00000   0.00000
  43        5PY         0.00000   0.00000   0.00000   0.00000   0.00000
  44        5PZ         0.00013   0.00012  -0.00003   0.01351  -0.02008
  45        6D 0        0.00007   0.00005   0.00013   0.00516   0.00522
  46        6D+1        0.00000   0.00000   0.00000   0.00000   0.00000
  47        6D-1        0.00000   0.00000   0.00000   0.00000   0.00000
  48        6D+2        0.00000   0.00000  -0.00000  -0.00000  -0.00000
  49        6D-2        0.00000   0.00000   0.00000   0.00000   0.00000
  50        7D 0       -0.00030  -0.00018   0.00000   0.00937   0.01441
  51        7D+1        0.00000   0.00000   0.00000   0.00000   0.00000
  52        7D-1        0.00000   0.00000   0.00000   0.00000   0.00000
  53        7D+2       -0.00000  -0.00000   0.00000  -0.00000  -0.00000
  54        7D-2        0.00000   0.00000   0.00000   0.00000   0.00000
  55 3   O  1S         -0.39003   0.39003  -0.00015  -0.07332   0.07988
  56        2S         -0.33354   0.33356  -0.00022  -0.12236   0.13341
  57        2PX         0.00000   0.00000   0.00000   0.00000   0.00000
  58        2PY         0.00000   0.00000   0.00000   0.00000   0.00000
  59        2PZ        -0.00139   0.00139   0.00025   0.03986  -0.03593
  60        3S         -0.00376   0.00357   0.00045   0.34783  -0.37641
  61        3PX         0.00000   0.00000   0.00000   0.00000   0.00000
  62        3PY         0.00000   0.00000   0.00000   0.00000   0.00000
  63        3PZ         0.00063  -0.00065   0.00043   0.06213  -0.06269
  64        4S          0.00157  -0.00114  -0.00013   0.20652  -0.34273
  65        4PX         0.00000   0.00000   0.00000   0.00000   0.00000
  66        4PY         0.00000   0.00000   0.00000   0.00000   0.00000
  67        4PZ         0.00043  -0.00014  -0.00009   0.01455  -0.05581
  68        5S          0.00004   0.00019  -0.00000  -0.04810  -0.04950
  69        5PX         0.00000   0.00000   0.00000   0.00000   0.00000
  70        5PY         0.00000   0.00000   0.00000   0.00000   0.00000
  71        5PZ         0.00013  -0.00012   0.00003  -0.01351  -0.02008
  72        6D 0       -0.00007   0.00005   0.00013   0.00516  -0.00522
  73        6D+1        0.00000   0.00000   0.00000   0.00000   0.00000
  74        6D-1        0.00000   0.00000   0.00000   0.00000   0.00000
  75        6D+2       -0.00000   0.00000  -0.00000  -0.00000   0.00000
  76        6D-2        0.00000   0.00000   0.00000   0.00000   0.00000
  77        7D 0        0.00030  -0.00018   0.00000   0.00937  -0.01441
  78        7D+1        0.00000   0.00000   0.00000   0.00000   0.00000
  79        7D-1        0.00000   0.00000   0.00000   0.00000   0.00000
  80        7D+2        0.00000  -0.00000   0.00000  -0.00000   0.00000
  81        7D-2        0.00000   0.00000   0.00000   0.00000   0.00000
                           6         7         8         9        10
                       (SGG)--O  (SGU)--O  (PIU)--O  (PIU)--O  (PIG)--O
     Eigenvalues --    -0.81355  -0.72652  -0.67829  -0.67829  -0.54102
   1 1   C  1S         -0.07950   0.00000   0.00000   0.00000   0.00000
   2        2S         -0.13487   0.00000   0.00000   0.00000   0.00000
   3        2PX         0.00000   0.00000   0.00000   0.14739   0.00000
   4        2PY         0.00000   0.00000   0.14739   0.00000   0.00000
   5        2PZ         0.00000   0.17285   0.00000   0.00000   0.00000
   6        3S          0.40030   0.00000   0.00000   0.00000   0.00000
   7        3PX         0.00000   0.00000   0.00000   0.23695   0.00000
   8        3PY         0.00000   0.00000   0.23695   0.00000   0.00000
   9        3PZ         0.00000   0.27202   0.00000   0.00000   0.00000
  10        4S          0.29470   0.00000   0.00000   0.00000   0.00000
  11        4PX         0.00000   0.00000   0.00000   0.12484   0.00000
  12        4PY         0.00000   0.00000   0.12484   0.00000   0.00000
  13        4PZ         0.00000   0.05645   0.00000   0.00000   0.00000
  14        5S         -0.00095   0.00000   0.00000   0.00000   0.00000
  15        5PX         0.00000   0.00000   0.00000   0.02809   0.00000
  16        5PY         0.00000   0.00000   0.02809   0.00000   0.00000
  17        5PZ         0.00000  -0.01795   0.00000   0.00000   0.00000
  18        6D 0        0.01534   0.00000   0.00000   0.00000   0.00000
  19        6D+1        0.00000   0.00000   0.00000   0.00000   0.03300
  20        6D-1        0.00000   0.00000   0.00000   0.00000   0.00000
  21        6D+2       -0.00000   0.00000   0.00000   0.00000   0.00000
  22        6D-2        0.00000   0.00000   0.00000   0.00000   0.00000
  23        7D 0        0.02457   0.00000   0.00000   0.00000   0.00000
  24        7D+1        0.00000   0.00000   0.00000   0.00000   0.08282
  25        7D-1        0.00000   0.00000   0.00000   0.00000   0.00000
  26        7D+2       -0.00000   0.00000   0.00000   0.00000   0.00000
  27        7D-2        0.00000   0.00000   0.00000   0.00000   0.00000
  28 2   O  1S          0.04680   0.03306   0.00000   0.00000   0.00000
  29        2S          0.07938   0.05603   0.00000   0.00000   0.00000
  30        2PX         0.00000   0.00000   0.00000   0.16496   0.20465
  31        2PY         0.00000   0.00000   0.16496   0.00000   0.00000
  32        2PZ        -0.14121  -0.17228   0.00000   0.00000   0.00000
  33        3S         -0.24415  -0.17444   0.00000   0.00000   0.00000
  34        3PX         0.00000   0.00000   0.00000   0.26012   0.31863
  35        3PY         0.00000   0.00000   0.26012   0.00000   0.00000
  36        3PZ        -0.21403  -0.26292   0.00000   0.00000   0.00000
  37        4S         -0.30027  -0.23370   0.00000   0.00000   0.00000
  38        4PX         0.00000   0.00000   0.00000   0.22274   0.27013
  39        4PY         0.00000   0.00000   0.22274   0.00000   0.00000
  40        4PZ        -0.12697  -0.16991   0.00000   0.00000   0.00000
  41        5S         -0.04418  -0.02005   0.00000   0.00000   0.00000
  42        5PX         0.00000   0.00000   0.00000  -0.01266   0.04081
  43        5PY         0.00000   0.00000  -0.01266   0.00000   0.00000
  44        5PZ         0.00969  -0.00149   0.00000   0.00000   0.00000
  45        6D 0        0.00733   0.00963   0.00000   0.00000   0.00000
  46        6D+1        0.00000   0.00000   0.00000  -0.00579  -0.00554
  47        6D-1        0.00000   0.00000  -0.00579   0.00000   0.00000
  48        6D+2       -0.00000   0.00000   0.00000   0.00000   0.00000
  49        6D-2        0.00000   0.00000   0.00000   0.00000   0.00000
  50        7D 0        0.01315   0.01588   0.00000   0.00000   0.00000
  51        7D+1        0.00000   0.00000   0.00000  -0.03181  -0.01839
  52        7D-1        0.00000   0.00000  -0.03181   0.00000   0.00000
  53        7D+2        0.00000   0.00000   0.00000   0.00000   0.00000
  54        7D-2        0.00000   0.00000   0.00000   0.00000   0.00000
  55 3   O  1S          0.04680  -0.03306   0.00000   0.00000   0.00000
  56        2S          0.07938  -0.05603   0.00000   0.00000   0.00000
  57        2PX         0.00000   0.00000   0.00000   0.16496  -0.20465
  58        2PY         0.00000   0.00000   0.16496   0.00000   0.00000
  59        2PZ         0.14121  -0.17228   0.00000   0.00000   0.00000
  60        3S         -0.24415   0.17444   0.00000   0.00000   0.00000
  61        3PX         0.00000   0.00000   0.00000   0.26012  -0.31863
  62        3PY         0.00000   0.00000   0.26012   0.00000   0.00000
  63        3PZ         0.21403  -0.26292   0.00000   0.00000   0.00000
  64        4S         -0.30027   0.23370   0.00000   0.00000   0.00000
  65        4PX         0.00000   0.00000   0.00000   0.22274  -0.27013
  66        4PY         0.00000   0.00000   0.22274   0.00000   0.00000
  67        4PZ         0.12697  -0.16991   0.00000   0.00000   0.00000
  68        5S         -0.04418   0.02005   0.00000   0.00000   0.00000
  69        5PX         0.00000   0.00000   0.00000  -0.01266  -0.04081
  70        5PY         0.00000   0.00000  -0.01266   0.00000   0.00000
  71        5PZ        -0.00969  -0.00149   0.00000   0.00000   0.00000
  72        6D 0        0.00733  -0.00963   0.00000   0.00000   0.00000
  73        6D+1        0.00000   0.00000   0.00000   0.00579  -0.00554
  74        6D-1        0.00000   0.00000   0.00579   0.00000   0.00000
  75        6D+2       -0.00000  -0.00000   0.00000   0.00000   0.00000
  76        6D-2        0.00000   0.00000   0.00000   0.00000   0.00000
  77        7D 0        0.01315  -0.01588   0.00000   0.00000   0.00000
  78        7D+1        0.00000   0.00000   0.00000   0.03181  -0.01839
  79        7D-1        0.00000   0.00000   0.03181   0.00000   0.00000
  80        7D+2        0.00000  -0.00000   0.00000   0.00000   0.00000
  81        7D-2        0.00000   0.00000   0.00000   0.00000   0.00000
                          11        12        13        14        15
                       (PIG)--O  (SGG)--V  (PIU)--V  (PIU)--V  (SGU)--V
     Eigenvalues --    -0.54102   0.05249   0.09557   0.09557   0.09977
   1 1   C  1S          0.00000  -0.00804   0.00000   0.00000   0.00000
   2        2S          0.00000  -0.01220   0.00000   0.00000   0.00000
   3        2PX         0.00000   0.00000   0.03586   0.00000   0.00000
   4        2PY         0.00000   0.00000   0.00000   0.03586   0.00000
   5        2PZ         0.00000   0.00000   0.00000   0.00000  -0.01155
   6        3S          0.00000  -0.01797   0.00000   0.00000   0.00000
   7        3PX         0.00000   0.00000   0.07968   0.00000   0.00000
   8        3PY         0.00000   0.00000   0.00000   0.07968   0.00000
   9        3PZ         0.00000   0.00000   0.00000   0.00000  -0.08136
  10        4S          0.00000   0.75865   0.00000   0.00000   0.00000
  11        4PX         0.00000   0.00000   0.07189   0.00000   0.00000
  12        4PY         0.00000   0.00000   0.00000   0.07189   0.00000
  13        4PZ         0.00000   0.00000   0.00000   0.00000  -1.37563
  14        5S          0.00000   2.58869   0.00000   0.00000   0.00000
  15        5PX         0.00000   0.00000   1.63459   0.00000   0.00000
  16        5PY         0.00000   0.00000   0.00000   1.63459   0.00000
  17        5PZ         0.00000   0.00000   0.00000   0.00000  -2.72713
  18        6D 0        0.00000  -0.01865   0.00000   0.00000   0.00000
  19        6D+1        0.00000   0.00000   0.00000   0.00000   0.00000
  20        6D-1        0.03300   0.00000   0.00000   0.00000   0.00000
  21        6D+2        0.00000  -0.00000   0.00000   0.00000   0.00000
  22        6D-2        0.00000   0.00000   0.00000   0.00000   0.00000
  23        7D 0        0.00000  -0.05115   0.00000   0.00000   0.00000
  24        7D+1        0.00000   0.00000   0.00000   0.00000   0.00000
  25        7D-1        0.08282   0.00000   0.00000   0.00000   0.00000
  26        7D+2        0.00000   0.00000   0.00000   0.00000   0.00000
  27        7D-2        0.00000   0.00000   0.00000   0.00000   0.00000
  28 2   O  1S          0.00000   0.01847   0.00000   0.00000  -0.01040
  29        2S          0.00000   0.03259   0.00000   0.00000  -0.01764
  30        2PX         0.00000   0.00000  -0.06360   0.00000   0.00000
  31        2PY         0.20465   0.00000   0.00000  -0.06360   0.00000
  32        2PZ         0.00000   0.03512   0.00000   0.00000   0.01416
  33        3S          0.00000  -0.11685   0.00000   0.00000   0.04496
  34        3PX         0.00000   0.00000  -0.11327   0.00000   0.00000
  35        3PY         0.31863   0.00000   0.00000  -0.11327   0.00000
  36        3PZ         0.00000   0.05541   0.00000   0.00000   0.04028
  37        4S          0.00000  -0.03861   0.00000   0.00000   0.34212
  38        4PX         0.00000   0.00000  -0.05685   0.00000   0.00000
  39        4PY         0.27013   0.00000   0.00000  -0.05685   0.00000
  40        4PZ         0.00000   0.07790   0.00000   0.00000  -0.26927
  41        5S          0.00000  -1.28256   0.00000   0.00000   2.97818
  42        5PX         0.00000   0.00000  -0.52106   0.00000   0.00000
  43        5PY         0.04081   0.00000   0.00000  -0.52106   0.00000
  44        5PZ         0.00000   0.34782   0.00000   0.00000  -0.37486
  45        6D 0        0.00000  -0.00110   0.00000   0.00000  -0.00280
  46        6D+1        0.00000   0.00000  -0.00073   0.00000   0.00000
  47        6D-1       -0.00554   0.00000   0.00000  -0.00073   0.00000
  48        6D+2        0.00000   0.00000   0.00000   0.00000   0.00000
  49        6D-2        0.00000   0.00000   0.00000   0.00000   0.00000
  50        7D 0        0.00000  -0.00906   0.00000   0.00000   0.02126
  51        7D+1        0.00000   0.00000   0.00156   0.00000   0.00000
  52        7D-1       -0.01839   0.00000   0.00000   0.00156   0.00000
  53        7D+2        0.00000   0.00000   0.00000   0.00000  -0.00000
  54        7D-2        0.00000   0.00000   0.00000   0.00000   0.00000
  55 3   O  1S          0.00000   0.01847   0.00000   0.00000   0.01040
  56        2S          0.00000   0.03259   0.00000   0.00000   0.01764
  57        2PX         0.00000   0.00000  -0.06360   0.00000   0.00000
  58        2PY        -0.20465   0.00000   0.00000  -0.06360   0.00000
  59        2PZ         0.00000  -0.03512   0.00000   0.00000   0.01416
  60        3S          0.00000  -0.11685   0.00000   0.00000  -0.04496
  61        3PX         0.00000   0.00000  -0.11327   0.00000   0.00000
  62        3PY        -0.31863   0.00000   0.00000  -0.11327   0.00000
  63        3PZ         0.00000  -0.05541   0.00000   0.00000   0.04028
  64        4S          0.00000  -0.03861   0.00000   0.00000  -0.34212
  65        4PX         0.00000   0.00000  -0.05685   0.00000   0.00000
  66        4PY        -0.27013   0.00000   0.00000  -0.05685   0.00000
  67        4PZ         0.00000  -0.07790   0.00000   0.00000  -0.26927
  68        5S          0.00000  -1.28256   0.00000   0.00000  -2.97818
  69        5PX         0.00000   0.00000  -0.52106   0.00000   0.00000
  70        5PY        -0.04081   0.00000   0.00000  -0.52106   0.00000
  71        5PZ         0.00000  -0.34782   0.00000   0.00000  -0.37486
  72        6D 0        0.00000  -0.00110   0.00000   0.00000   0.00280
  73        6D+1        0.00000   0.00000   0.00073   0.00000   0.00000
  74        6D-1       -0.00554   0.00000   0.00000   0.00073   0.00000
  75        6D+2        0.00000   0.00000   0.00000   0.00000  -0.00000
  76        6D-2        0.00000   0.00000   0.00000   0.00000   0.00000
  77        7D 0        0.00000  -0.00906   0.00000   0.00000  -0.02126
  78        7D+1        0.00000   0.00000  -0.00156   0.00000   0.00000
  79        7D-1       -0.01839   0.00000   0.00000  -0.00156   0.00000
  80        7D+2        0.00000   0.00000   0.00000   0.00000   0.00000
  81        7D-2        0.00000   0.00000   0.00000   0.00000   0.00000
                          16        17        18        19        20
                       (PIU)--V  (PIU)--V  (SGG)--V  (SGG)--V  (PIG)--V
     Eigenvalues --     0.14023   0.14023   0.23086   0.25025   0.27358
   1 1   C  1S          0.00000   0.00000   0.02296  -0.04368   0.00000
   2        2S          0.00000   0.00000   0.04651  -0.07470   0.00000
   3        2PX         0.24998   0.00000   0.00000   0.00000   0.00000
   4        2PY         0.00000   0.24998   0.00000   0.00000   0.00000
   5        2PZ         0.00000   0.00000   0.00000   0.00000   0.00000
   6        3S          0.00000   0.00000  -0.24389   0.08175   0.00000
   7        3PX         0.38803   0.00000   0.00000   0.00000   0.00000
   8        3PY         0.00000   0.38803   0.00000   0.00000   0.00000
   9        3PZ         0.00000   0.00000   0.00000   0.00000   0.00000
  10        4S          0.00000   0.00000   1.50788   2.25026   0.00000
  11        4PX         0.83220   0.00000   0.00000   0.00000   0.00000
  12        4PY         0.00000   0.83220   0.00000   0.00000   0.00000
  13        4PZ         0.00000   0.00000   0.00000   0.00000   0.00000
  14        5S          0.00000   0.00000   2.46406  -1.53748   0.00000
  15        5PX        -0.39948   0.00000   0.00000   0.00000   0.00000
  16        5PY         0.00000  -0.39948   0.00000   0.00000   0.00000
  17        5PZ         0.00000   0.00000   0.00000   0.00000   0.00000
  18        6D 0        0.00000   0.00000   0.04455  -0.02529   0.00000
  19        6D+1        0.00000   0.00000   0.00000   0.00000   0.00000
  20        6D-1        0.00000   0.00000   0.00000   0.00000  -0.00853
  21        6D+2        0.00000   0.00000  -0.00000  -0.00000   0.00000
  22        6D-2        0.00000   0.00000   0.00000   0.00000   0.00000
  23        7D 0        0.00000   0.00000   0.11195   0.14470   0.00000
  24        7D+1        0.00000   0.00000   0.00000   0.00000   0.00000
  25        7D-1        0.00000   0.00000   0.00000   0.00000   0.04719
  26        7D+2        0.00000   0.00000   0.00000   0.00000   0.00000
  27        7D-2        0.00000   0.00000   0.00000   0.00000   0.00000
  28 2   O  1S          0.00000   0.00000  -0.02045   0.02565   0.00000
  29        2S          0.00000   0.00000  -0.03427   0.04300   0.00000
  30        2PX        -0.12457   0.00000   0.00000   0.00000   0.00000
  31        2PY         0.00000  -0.12457   0.00000   0.00000  -0.07014
  32        2PZ         0.00000   0.00000  -0.10890   0.03928   0.00000
  33        3S          0.00000   0.00000   0.07964  -0.10002   0.00000
  34        3PX        -0.18244   0.00000   0.00000   0.00000   0.00000
  35        3PY         0.00000  -0.18244   0.00000   0.00000  -0.04977
  36        3PZ         0.00000   0.00000  -0.15736   0.12306   0.00000
  37        4S          0.00000   0.00000   0.41852  -0.94614   0.00000
  38        4PX        -0.31379   0.00000   0.00000   0.00000   0.00000
  39        4PY         0.00000  -0.31379   0.00000   0.00000  -0.44690
  40        4PZ         0.00000   0.00000  -0.21205   0.13578   0.00000
  41        5S          0.00000   0.00000  -2.18580   0.90457   0.00000
  42        5PX        -0.13109   0.00000   0.00000   0.00000   0.00000
  43        5PY         0.00000  -0.13109   0.00000   0.00000   1.16593
  44        5PZ         0.00000   0.00000   1.10816   0.77584   0.00000
  45        6D 0        0.00000   0.00000   0.00525   0.00216   0.00000
  46        6D+1       -0.00679   0.00000   0.00000   0.00000   0.00000
  47        6D-1        0.00000  -0.00679   0.00000   0.00000   0.00098
  48        6D+2        0.00000   0.00000  -0.00000   0.00000   0.00000
  49        6D-2        0.00000   0.00000   0.00000   0.00000   0.00000
  50        7D 0        0.00000   0.00000   0.00113  -0.00171   0.00000
  51        7D+1       -0.01584   0.00000   0.00000   0.00000   0.00000
  52        7D-1        0.00000  -0.01584   0.00000   0.00000   0.02699
  53        7D+2        0.00000   0.00000   0.00000   0.00000   0.00000
  54        7D-2        0.00000   0.00000   0.00000   0.00000   0.00000
  55 3   O  1S          0.00000   0.00000  -0.02045   0.02565   0.00000
  56        2S          0.00000   0.00000  -0.03427   0.04300   0.00000
  57        2PX        -0.12457   0.00000   0.00000   0.00000   0.00000
  58        2PY         0.00000  -0.12457   0.00000   0.00000   0.07014
  59        2PZ         0.00000   0.00000   0.10890  -0.03928   0.00000
  60        3S          0.00000   0.00000   0.07964  -0.10002   0.00000
  61        3PX        -0.18244   0.00000   0.00000   0.00000   0.00000
  62        3PY         0.00000  -0.18244   0.00000   0.00000   0.04977
  63        3PZ         0.00000   0.00000   0.15736  -0.12306   0.00000
  64        4S          0.00000   0.00000   0.41852  -0.94614   0.00000
  65        4PX        -0.31379   0.00000   0.00000   0.00000   0.00000
  66        4PY         0.00000  -0.31379   0.00000   0.00000   0.44690
  67        4PZ         0.00000   0.00000   0.21205  -0.13578   0.00000
  68        5S          0.00000   0.00000  -2.18580   0.90457   0.00000
  69        5PX        -0.13109   0.00000   0.00000   0.00000   0.00000
  70        5PY         0.00000  -0.13109   0.00000   0.00000  -1.16593
  71        5PZ         0.00000   0.00000  -1.10816  -0.77584   0.00000
  72        6D 0        0.00000   0.00000   0.00525   0.00216   0.00000
  73        6D+1        0.00679   0.00000   0.00000   0.00000   0.00000
  74        6D-1        0.00000   0.00679   0.00000   0.00000   0.00098
  75        6D+2        0.00000   0.00000  -0.00000   0.00000   0.00000
  76        6D-2        0.00000   0.00000   0.00000   0.00000   0.00000
  77        7D 0        0.00000   0.00000   0.00113  -0.00171   0.00000
  78        7D+1        0.01584   0.00000   0.00000   0.00000   0.00000
  79        7D-1        0.00000   0.01584   0.00000   0.00000   0.02699
  80        7D+2        0.00000   0.00000   0.00000   0.00000   0.00000
  81        7D-2        0.00000   0.00000   0.00000   0.00000   0.00000
                          21        22        23        24        25
                       (PIG)--V  (SGU)--V  (PIU)--V  (PIU)--V  (SGU)--V
     Eigenvalues --     0.27358   0.31057   0.34369   0.34369   0.37711
   1 1   C  1S          0.00000   0.00000   0.00000   0.00000   0.00000
   2        2S          0.00000   0.00000   0.00000   0.00000   0.00000
   3        2PX         0.00000   0.00000   0.00000   0.02682   0.00000
   4        2PY         0.00000   0.00000   0.02682   0.00000   0.00000
   5        2PZ         0.00000   0.06322   0.00000   0.00000   0.01860
   6        3S          0.00000   0.00000   0.00000   0.00000   0.00000
   7        3PX         0.00000   0.00000   0.00000  -0.03000   0.00000
   8        3PY         0.00000   0.00000  -0.03000   0.00000   0.00000
   9        3PZ         0.00000  -0.04860   0.00000   0.00000  -0.16208
  10        4S          0.00000   0.00000   0.00000   0.00000   0.00000
  11        4PX         0.00000   0.00000   0.00000   0.45799   0.00000
  12        4PY         0.00000   0.00000   0.45799   0.00000   0.00000
  13        4PZ         0.00000   2.04543   0.00000   0.00000  -3.37347
  14        5S          0.00000   0.00000   0.00000   0.00000   0.00000
  15        5PX         0.00000   0.00000   0.00000   1.95533   0.00000
  16        5PY         0.00000   0.00000   1.95533   0.00000   0.00000
  17        5PZ         0.00000  -1.08340   0.00000   0.00000  -3.11160
  18        6D 0        0.00000   0.00000   0.00000   0.00000   0.00000
  19        6D+1       -0.00853   0.00000   0.00000   0.00000   0.00000
  20        6D-1        0.00000   0.00000   0.00000   0.00000   0.00000
  21        6D+2        0.00000   0.00000   0.00000   0.00000   0.00000
  22        6D-2        0.00000   0.00000   0.00000   0.00000   0.00000
  23        7D 0        0.00000   0.00000   0.00000   0.00000   0.00000
  24        7D+1        0.04719   0.00000   0.00000   0.00000   0.00000
  25        7D-1        0.00000   0.00000   0.00000   0.00000   0.00000
  26        7D+2        0.00000   0.00000   0.00000   0.00000   0.00000
  27        7D-2        0.00000   0.00000   0.00000   0.00000   0.00000
  28 2   O  1S          0.00000   0.00140   0.00000   0.00000   0.02648
  29        2S          0.00000   0.00115   0.00000   0.00000   0.04678
  30        2PX        -0.07014   0.00000   0.00000   0.08048   0.00000
  31        2PY         0.00000   0.00000   0.08048   0.00000   0.00000
  32        2PZ         0.00000  -0.01354   0.00000   0.00000  -0.03716
  33        3S          0.00000   0.01921   0.00000   0.00000  -0.18624
  34        3PX        -0.04977   0.00000   0.00000   0.06788   0.00000
  35        3PY         0.00000   0.00000   0.06788   0.00000   0.00000
  36        3PZ         0.00000  -0.01536   0.00000   0.00000   0.01537
  37        4S          0.00000  -0.41463   0.00000   0.00000   0.15366
  38        4PX        -0.44690   0.00000   0.00000   0.45289   0.00000
  39        4PY         0.00000   0.00000   0.45289   0.00000   0.00000
  40        4PZ         0.00000   0.02497   0.00000   0.00000  -0.90673
  41        5S          0.00000  -2.58171   0.00000   0.00000   6.57896
  42        5PX         1.16593   0.00000   0.00000  -1.91229   0.00000
  43        5PY         0.00000   0.00000  -1.91229   0.00000   0.00000
  44        5PZ         0.00000   2.70708   0.00000   0.00000  -0.69982
  45        6D 0        0.00000   0.00472   0.00000   0.00000  -0.00679
  46        6D+1        0.00098   0.00000   0.00000  -0.00306   0.00000
  47        6D-1        0.00000   0.00000  -0.00306   0.00000   0.00000
  48        6D+2        0.00000  -0.00000   0.00000   0.00000   0.00000
  49        6D-2        0.00000   0.00000   0.00000   0.00000   0.00000
  50        7D 0        0.00000   0.02591   0.00000   0.00000   0.05563
  51        7D+1        0.02699   0.00000   0.00000  -0.01199   0.00000
  52        7D-1        0.00000   0.00000  -0.01199   0.00000   0.00000
  53        7D+2        0.00000  -0.00000   0.00000   0.00000   0.00000
  54        7D-2        0.00000   0.00000   0.00000   0.00000   0.00000
  55 3   O  1S          0.00000  -0.00140   0.00000   0.00000  -0.02648
  56        2S          0.00000  -0.00115   0.00000   0.00000  -0.04678
  57        2PX         0.07014   0.00000   0.00000   0.08048   0.00000
  58        2PY         0.00000   0.00000   0.08048   0.00000   0.00000
  59        2PZ         0.00000  -0.01354   0.00000   0.00000  -0.03716
  60        3S          0.00000  -0.01921   0.00000   0.00000   0.18624
  61        3PX         0.04977   0.00000   0.00000   0.06788   0.00000
  62        3PY         0.00000   0.00000   0.06788   0.00000   0.00000
  63        3PZ         0.00000  -0.01536   0.00000   0.00000   0.01537
  64        4S          0.00000   0.41463   0.00000   0.00000  -0.15366
  65        4PX         0.44690   0.00000   0.00000   0.45289   0.00000
  66        4PY         0.00000   0.00000   0.45289   0.00000   0.00000
  67        4PZ         0.00000   0.02497   0.00000   0.00000  -0.90673
  68        5S          0.00000   2.58171   0.00000   0.00000  -6.57896
  69        5PX        -1.16593   0.00000   0.00000  -1.91229   0.00000
  70        5PY         0.00000   0.00000  -1.91229   0.00000   0.00000
  71        5PZ         0.00000   2.70708   0.00000   0.00000  -0.69982
  72        6D 0        0.00000  -0.00472   0.00000   0.00000   0.00679
  73        6D+1        0.00098   0.00000   0.00000   0.00306   0.00000
  74        6D-1        0.00000   0.00000   0.00306   0.00000   0.00000
  75        6D+2        0.00000   0.00000   0.00000   0.00000  -0.00000
  76        6D-2        0.00000   0.00000   0.00000   0.00000   0.00000
  77        7D 0        0.00000  -0.02591   0.00000   0.00000  -0.05563
  78        7D+1        0.02699   0.00000   0.00000   0.01199   0.00000
  79        7D-1        0.00000   0.00000   0.01199   0.00000   0.00000
  80        7D+2        0.00000   0.00000   0.00000   0.00000  -0.00000
  81        7D-2        0.00000   0.00000   0.00000   0.00000   0.00000
                          26        27        28        29        30
                       (SGG)--V  (PIU)--V  (PIU)--V  (DLTG)--  (DLTG)--
     Eigenvalues --     0.43301   0.68605   0.68605   0.74340   0.74340
   1 1   C  1S         -0.06463   0.00000   0.00000   0.00000   0.00000
   2        2S         -0.11557   0.00000   0.00000   0.00000   0.00000
   3        2PX         0.00000   0.00000  -0.22476   0.00000   0.00000
   4        2PY         0.00000  -0.22476   0.00000   0.00000   0.00000
   5        2PZ         0.00000   0.00000   0.00000   0.00000   0.00000
   6        3S          0.22464   0.00000   0.00000   0.00000  -0.00000
   7        3PX         0.00000   0.00000  -0.94851   0.00000   0.00000
   8        3PY         0.00000  -0.94851   0.00000   0.00000   0.00000
   9        3PZ         0.00000   0.00000   0.00000   0.00000   0.00000
  10        4S          5.63943   0.00000   0.00000   0.00000   0.00000
  11        4PX         0.00000   0.00000   2.14650   0.00000   0.00000
  12        4PY         0.00000   2.14650   0.00000   0.00000   0.00000
  13        4PZ         0.00000   0.00000   0.00000   0.00000   0.00000
  14        5S          3.21262   0.00000   0.00000   0.00000   0.00000
  15        5PX         0.00000   0.00000   0.00922   0.00000   0.00000
  16        5PY         0.00000   0.00922   0.00000   0.00000   0.00000
  17        5PZ         0.00000   0.00000   0.00000   0.00000   0.00000
  18        6D 0       -0.03186   0.00000   0.00000   0.00000  -0.00000
  19        6D+1        0.00000   0.00000   0.00000   0.00000   0.00000
  20        6D-1        0.00000   0.00000   0.00000   0.00000   0.00000
  21        6D+2       -0.00000   0.00000   0.00000   0.00000   0.00074
  22        6D-2        0.00000   0.00000   0.00000   0.00074   0.00000
  23        7D 0        0.19215   0.00000   0.00000   0.00000   0.00000
  24        7D+1        0.00000   0.00000   0.00000   0.00000   0.00000
  25        7D-1        0.00000   0.00000   0.00000   0.00000   0.00000
  26        7D+2       -0.00000   0.00000   0.00000   0.00000   0.96267
  27        7D-2        0.00000   0.00000   0.00000   0.96267   0.00000
  28 2   O  1S          0.00279   0.00000   0.00000   0.00000  -0.00000
  29        2S          0.00710   0.00000   0.00000   0.00000  -0.00000
  30        2PX         0.00000   0.00000   0.01656   0.00000   0.00000
  31        2PY         0.00000   0.01656   0.00000   0.00000   0.00000
  32        2PZ         0.13284   0.00000   0.00000   0.00000  -0.00000
  33        3S         -0.05141   0.00000   0.00000   0.00000   0.00000
  34        3PX         0.00000   0.00000   0.04466   0.00000   0.00000
  35        3PY         0.00000   0.04466   0.00000   0.00000   0.00000
  36        3PZ         0.19470   0.00000   0.00000   0.00000   0.00000
  37        4S         -0.07644   0.00000   0.00000   0.00000  -0.00000
  38        4PX         0.00000   0.00000  -0.17251   0.00000   0.00000
  39        4PY         0.00000  -0.17251   0.00000   0.00000   0.00000
  40        4PZ         0.89627   0.00000   0.00000   0.00000   0.00000
  41        5S         -4.27406   0.00000   0.00000   0.00000  -0.00000
  42        5PX         0.00000   0.00000  -0.65997   0.00000   0.00000
  43        5PY         0.00000  -0.65997   0.00000   0.00000   0.00000
  44        5PZ         0.99565   0.00000   0.00000   0.00000   0.00000
  45        6D 0        0.00839   0.00000   0.00000   0.00000   0.00000
  46        6D+1        0.00000   0.00000  -0.00074   0.00000   0.00000
  47        6D-1        0.00000  -0.00074   0.00000   0.00000   0.00000
  48        6D+2       -0.00000   0.00000   0.00000   0.00000   0.00647
  49        6D-2        0.00000   0.00000   0.00000   0.00647   0.00000
  50        7D 0       -0.02860   0.00000   0.00000   0.00000  -0.00000
  51        7D+1        0.00000   0.00000   0.03961   0.00000   0.00000
  52        7D-1        0.00000   0.03961   0.00000   0.00000   0.00000
  53        7D+2        0.00000   0.00000   0.00000   0.00000   0.06637
  54        7D-2        0.00000   0.00000   0.00000   0.06637   0.00000
  55 3   O  1S          0.00279   0.00000   0.00000   0.00000  -0.00000
  56        2S          0.00710   0.00000   0.00000   0.00000  -0.00000
  57        2PX         0.00000   0.00000   0.01656   0.00000   0.00000
  58        2PY         0.00000   0.01656   0.00000   0.00000   0.00000
  59        2PZ        -0.13284   0.00000   0.00000   0.00000   0.00000
  60        3S         -0.05141   0.00000   0.00000   0.00000   0.00000
  61        3PX         0.00000   0.00000   0.04466   0.00000   0.00000
  62        3PY         0.00000   0.04466   0.00000   0.00000   0.00000
  63        3PZ        -0.19470   0.00000   0.00000   0.00000  -0.00000
  64        4S         -0.07644   0.00000   0.00000   0.00000  -0.00000
  65        4PX         0.00000   0.00000  -0.17251   0.00000   0.00000
  66        4PY         0.00000  -0.17251   0.00000   0.00000   0.00000
  67        4PZ        -0.89627   0.00000   0.00000   0.00000  -0.00000
  68        5S         -4.27406   0.00000   0.00000   0.00000  -0.00000
  69        5PX         0.00000   0.00000  -0.65997   0.00000   0.00000
  70        5PY         0.00000  -0.65997   0.00000   0.00000   0.00000
  71        5PZ        -0.99565   0.00000   0.00000   0.00000  -0.00000
  72        6D 0        0.00839   0.00000   0.00000   0.00000   0.00000
  73        6D+1        0.00000   0.00000   0.00074   0.00000   0.00000
  74        6D-1        0.00000   0.00074   0.00000   0.00000   0.00000
  75        6D+2       -0.00000   0.00000   0.00000   0.00000   0.00647
  76        6D-2        0.00000   0.00000   0.00000   0.00647   0.00000
  77        7D 0       -0.02860   0.00000   0.00000   0.00000  -0.00000
  78        7D+1        0.00000   0.00000  -0.03961   0.00000   0.00000
  79        7D-1        0.00000  -0.03961   0.00000   0.00000   0.00000
  80        7D+2        0.00000   0.00000   0.00000   0.00000   0.06637
  81        7D-2        0.00000   0.00000   0.00000   0.06637   0.00000
                          31        32        33        34        35
                       (SGU)--V  (SGG)--V  (SGU)--V  (PIG)--V  (PIG)--V
     Eigenvalues --     0.82530   0.84567   0.92690   1.08911   1.08911
   1 1   C  1S          0.00000   0.08919   0.00000   0.00000   0.00000
   2        2S          0.00000   0.17492   0.00000   0.00000   0.00000
   3        2PX         0.00000   0.00000   0.00000   0.00000   0.00000
   4        2PY         0.00000   0.00000   0.00000   0.00000   0.00000
   5        2PZ        -0.13518   0.00000   0.35431   0.00000   0.00000
   6        3S          0.00000  -1.92547   0.00000   0.00000   0.00000
   7        3PX         0.00000   0.00000   0.00000   0.00000   0.00000
   8        3PY         0.00000   0.00000   0.00000   0.00000   0.00000
   9        3PZ        -0.34653   0.00000   1.22360   0.00000   0.00000
  10        4S          0.00000  15.88689   0.00000   0.00000   0.00000
  11        4PX         0.00000   0.00000   0.00000   0.00000   0.00000
  12        4PY         0.00000   0.00000   0.00000   0.00000   0.00000
  13        4PZ         9.26372   0.00000   4.65149   0.00000   0.00000
  14        5S          0.00000   1.74950   0.00000   0.00000   0.00000
  15        5PX         0.00000   0.00000   0.00000   0.00000   0.00000
  16        5PY         0.00000   0.00000   0.00000   0.00000   0.00000
  17        5PZ         1.04440   0.00000   1.12580   0.00000   0.00000
  18        6D 0        0.00000  -0.00500   0.00000   0.00000   0.00000
  19        6D+1        0.00000   0.00000   0.00000   0.02058   0.00000
  20        6D-1        0.00000   0.00000   0.00000   0.00000   0.02058
  21        6D+2        0.00000  -0.00000   0.00000   0.00000   0.00000
  22        6D-2        0.00000   0.00000   0.00000   0.00000   0.00000
  23        7D 0        0.00000   2.58000   0.00000   0.00000   0.00000
  24        7D+1        0.00000   0.00000   0.00000   1.52729   0.00000
  25        7D-1        0.00000   0.00000   0.00000   0.00000   1.52729
  26        7D+2        0.00000  -0.00000   0.00000   0.00000   0.00000
  27        7D-2        0.00000   0.00000   0.00000   0.00000   0.00000
  28 2   O  1S          0.01418  -0.01480   0.04332   0.00000   0.00000
  29        2S          0.02044  -0.02811   0.07519   0.00000   0.00000
  30        2PX         0.00000   0.00000   0.00000  -0.04851   0.00000
  31        2PY         0.00000   0.00000   0.00000   0.00000  -0.04851
  32        2PZ         0.00980  -0.08635   0.14505   0.00000   0.00000
  33        3S          0.05700   0.20225  -0.18103   0.00000   0.00000
  34        3PX         0.00000   0.00000   0.00000  -0.04785   0.00000
  35        3PY         0.00000   0.00000   0.00000   0.00000  -0.04785
  36        3PZ        -0.01020   0.07388   0.18954   0.00000   0.00000
  37        4S         -3.11176  -4.52114  -2.21645   0.00000   0.00000
  38        4PX         0.00000   0.00000   0.00000  -1.00350   0.00000
  39        4PY         0.00000   0.00000   0.00000   0.00000  -1.00350
  40        4PZ         1.18267   2.62806   1.70864   0.00000   0.00000
  41        5S         -7.09496  -4.37568  -3.42165   0.00000   0.00000
  42        5PX         0.00000   0.00000   0.00000   0.27922   0.00000
  43        5PY         0.00000   0.00000   0.00000   0.00000   0.27922
  44        5PZ         2.37933   1.63627   0.27135   0.00000   0.00000
  45        6D 0       -0.00783   0.01157   0.02176   0.00000   0.00000
  46        6D+1        0.00000   0.00000   0.00000  -0.02814   0.00000
  47        6D-1        0.00000   0.00000   0.00000   0.00000  -0.02814
  48        6D+2       -0.00000  -0.00000  -0.00000   0.00000   0.00000
  49        6D-2        0.00000   0.00000   0.00000   0.00000   0.00000
  50        7D 0       -0.10078  -0.26773  -0.00672   0.00000   0.00000
  51        7D+1        0.00000   0.00000   0.00000  -0.03577   0.00000
  52        7D-1        0.00000   0.00000   0.00000   0.00000  -0.03577
  53        7D+2       -0.00000  -0.00000   0.00000   0.00000   0.00000
  54        7D-2        0.00000   0.00000   0.00000   0.00000   0.00000
  55 3   O  1S         -0.01418  -0.01480  -0.04332   0.00000   0.00000
  56        2S         -0.02044  -0.02811  -0.07519   0.00000   0.00000
  57        2PX         0.00000   0.00000   0.00000   0.04851   0.00000
  58        2PY         0.00000   0.00000   0.00000   0.00000   0.04851
  59        2PZ         0.00980   0.08635   0.14505   0.00000   0.00000
  60        3S         -0.05700   0.20225   0.18103   0.00000   0.00000
  61        3PX         0.00000   0.00000   0.00000   0.04785   0.00000
  62        3PY         0.00000   0.00000   0.00000   0.00000   0.04785
  63        3PZ        -0.01020  -0.07388   0.18954   0.00000   0.00000
  64        4S          3.11176  -4.52114   2.21645   0.00000   0.00000
  65        4PX         0.00000   0.00000   0.00000   1.00350   0.00000
  66        4PY         0.00000   0.00000   0.00000   0.00000   1.00350
  67        4PZ         1.18267  -2.62806   1.70864   0.00000   0.00000
  68        5S          7.09496  -4.37568   3.42165   0.00000   0.00000
  69        5PX         0.00000   0.00000   0.00000  -0.27922   0.00000
  70        5PY         0.00000   0.00000   0.00000   0.00000  -0.27922
  71        5PZ         2.37933  -1.63627   0.27135   0.00000   0.00000
  72        6D 0        0.00783   0.01157  -0.02176   0.00000   0.00000
  73        6D+1        0.00000   0.00000   0.00000  -0.02814   0.00000
  74        6D-1        0.00000   0.00000   0.00000   0.00000  -0.02814
  75        6D+2        0.00000  -0.00000   0.00000   0.00000   0.00000
  76        6D-2        0.00000   0.00000   0.00000   0.00000   0.00000
  77        7D 0        0.10078  -0.26773   0.00672   0.00000   0.00000
  78        7D+1        0.00000   0.00000   0.00000  -0.03577   0.00000
  79        7D-1        0.00000   0.00000   0.00000   0.00000  -0.03577
  80        7D+2        0.00000  -0.00000  -0.00000   0.00000   0.00000
  81        7D-2        0.00000   0.00000   0.00000   0.00000   0.00000
                          36        37        38        39        40
                       (SGG)--V  (PIG)--V  (PIG)--V  (PIU)--V  (PIU)--V
     Eigenvalues --     1.10595   1.22445   1.22445   1.33747   1.33747
   1 1   C  1S         -0.05479   0.00000   0.00000   0.00000   0.00000
   2        2S         -0.14167   0.00000   0.00000   0.00000   0.00000
   3        2PX         0.00000   0.00000   0.00000   0.00134   0.00000
   4        2PY         0.00000   0.00000   0.00000   0.00000   0.00134
   5        2PZ         0.00000   0.00000   0.00000   0.00000   0.00000
   6        3S          1.10128   0.00000   0.00000   0.00000   0.00000
   7        3PX         0.00000   0.00000   0.00000  -0.16662   0.00000
   8        3PY         0.00000   0.00000   0.00000   0.00000  -0.16662
   9        3PZ         0.00000   0.00000   0.00000   0.00000   0.00000
  10        4S          6.24378   0.00000   0.00000   0.00000   0.00000
  11        4PX         0.00000   0.00000   0.00000  -0.14035   0.00000
  12        4PY         0.00000   0.00000   0.00000   0.00000  -0.14035
  13        4PZ         0.00000   0.00000   0.00000   0.00000   0.00000
  14        5S          0.14286   0.00000   0.00000   0.00000   0.00000
  15        5PX         0.00000   0.00000   0.00000   0.90442   0.00000
  16        5PY         0.00000   0.00000   0.00000   0.00000   0.90442
  17        5PZ         0.00000   0.00000   0.00000   0.00000   0.00000
  18        6D 0        0.03530   0.00000   0.00000   0.00000   0.00000
  19        6D+1        0.00000   0.00000  -0.00322   0.00000   0.00000
  20        6D-1        0.00000  -0.00322   0.00000   0.00000   0.00000
  21        6D+2       -0.00000   0.00000   0.00000   0.00000   0.00000
  22        6D-2        0.00000   0.00000   0.00000   0.00000   0.00000
  23        7D 0        1.87380   0.00000   0.00000   0.00000   0.00000
  24        7D+1        0.00000   0.00000  -0.17638   0.00000   0.00000
  25        7D-1        0.00000  -0.17638   0.00000   0.00000   0.00000
  26        7D+2       -0.00000   0.00000   0.00000   0.00000   0.00000
  27        7D-2        0.00000   0.00000   0.00000   0.00000   0.00000
  28 2   O  1S          0.00762   0.00000   0.00000   0.00000   0.00000
  29        2S          0.01099   0.00000   0.00000   0.00000   0.00000
  30        2PX         0.00000   0.00000  -0.17654  -0.16426   0.00000
  31        2PY         0.00000  -0.17654   0.00000   0.00000  -0.16426
  32        2PZ        -0.07952   0.00000   0.00000   0.00000   0.00000
  33        3S          0.05575   0.00000   0.00000   0.00000   0.00000
  34        3PX         0.00000   0.00000  -0.63031  -0.63128   0.00000
  35        3PY         0.00000  -0.63031   0.00000   0.00000  -0.63128
  36        3PZ        -0.22988   0.00000   0.00000   0.00000   0.00000
  37        4S         -3.19256   0.00000   0.00000   0.00000   0.00000
  38        4PX         0.00000   0.00000   1.29979   1.41943   0.00000
  39        4PY         0.00000   1.29979   0.00000   0.00000   1.41943
  40        4PZ         2.69906   0.00000   0.00000   0.00000   0.00000
  41        5S         -1.03352   0.00000   0.00000   0.00000   0.00000
  42        5PX         0.00000   0.00000  -0.67556  -1.06253   0.00000
  43        5PY         0.00000  -0.67556   0.00000   0.00000  -1.06253
  44        5PZ        -0.19466   0.00000   0.00000   0.00000   0.00000
  45        6D 0        0.02874   0.00000   0.00000   0.00000   0.00000
  46        6D+1        0.00000   0.00000   0.00989   0.00776   0.00000
  47        6D-1        0.00000   0.00989   0.00000   0.00000   0.00776
  48        6D+2       -0.00000   0.00000   0.00000   0.00000   0.00000
  49        6D-2        0.00000   0.00000   0.00000   0.00000   0.00000
  50        7D 0       -0.04100   0.00000   0.00000   0.00000   0.00000
  51        7D+1        0.00000   0.00000  -0.03647   0.09410   0.00000
  52        7D-1        0.00000  -0.03647   0.00000   0.00000   0.09410
  53        7D+2       -0.00000   0.00000   0.00000   0.00000   0.00000
  54        7D-2        0.00000   0.00000   0.00000   0.00000   0.00000
  55 3   O  1S          0.00762   0.00000   0.00000   0.00000   0.00000
  56        2S          0.01099   0.00000   0.00000   0.00000   0.00000
  57        2PX         0.00000   0.00000   0.17654  -0.16426   0.00000
  58        2PY         0.00000   0.17654   0.00000   0.00000  -0.16426
  59        2PZ         0.07952   0.00000   0.00000   0.00000   0.00000
  60        3S          0.05575   0.00000   0.00000   0.00000   0.00000
  61        3PX         0.00000   0.00000   0.63031  -0.63128   0.00000
  62        3PY         0.00000   0.63031   0.00000   0.00000  -0.63128
  63        3PZ         0.22988   0.00000   0.00000   0.00000   0.00000
  64        4S         -3.19256   0.00000   0.00000   0.00000   0.00000
  65        4PX         0.00000   0.00000  -1.29979   1.41943   0.00000
  66        4PY         0.00000  -1.29979   0.00000   0.00000   1.41943
  67        4PZ        -2.69906   0.00000   0.00000   0.00000   0.00000
  68        5S         -1.03352   0.00000   0.00000   0.00000   0.00000
  69        5PX         0.00000   0.00000   0.67556  -1.06253   0.00000
  70        5PY         0.00000   0.67556   0.00000   0.00000  -1.06253
  71        5PZ         0.19466   0.00000   0.00000   0.00000   0.00000
  72        6D 0        0.02874   0.00000   0.00000   0.00000   0.00000
  73        6D+1        0.00000   0.00000   0.00989  -0.00776   0.00000
  74        6D-1        0.00000   0.00989   0.00000   0.00000  -0.00776
  75        6D+2       -0.00000   0.00000   0.00000   0.00000   0.00000
  76        6D-2        0.00000   0.00000   0.00000   0.00000   0.00000
  77        7D 0       -0.04100   0.00000   0.00000   0.00000   0.00000
  78        7D+1        0.00000   0.00000  -0.03647  -0.09410   0.00000
  79        7D-1        0.00000  -0.03647   0.00000   0.00000  -0.09410
  80        7D+2       -0.00000   0.00000   0.00000   0.00000   0.00000
  81        7D-2        0.00000   0.00000   0.00000   0.00000   0.00000
                          41        42        43        44        45
                       (SGU)--V  (SGG)--V  (DLTU)--  (DLTU)--  (DLTG)--
     Eigenvalues --     1.35533   1.53963   1.67230   1.67230   1.87159
   1 1   C  1S          0.00000   0.04044   0.00000   0.00000   0.00000
   2        2S          0.00000   0.08669   0.00000   0.00000   0.00000
   3        2PX         0.00000   0.00000   0.00000   0.00000   0.00000
   4        2PY         0.00000   0.00000   0.00000   0.00000   0.00000
   5        2PZ        -0.21216   0.00000  -0.00000   0.00000   0.00000
   6        3S          0.00000  -0.27699   0.00000   0.00000   0.00000
   7        3PX         0.00000   0.00000   0.00000   0.00000   0.00000
   8        3PY         0.00000   0.00000   0.00000   0.00000   0.00000
   9        3PZ         0.87736   0.00000   0.00000   0.00000   0.00000
  10        4S          0.00000  -2.91448   0.00000   0.00000   0.00000
  11        4PX         0.00000   0.00000   0.00000   0.00000   0.00000
  12        4PY         0.00000   0.00000   0.00000   0.00000   0.00000
  13        4PZ         5.24722   0.00000   0.00000   0.00000   0.00000
  14        5S          0.00000   1.65691   0.00000   0.00000   0.00000
  15        5PX         0.00000   0.00000   0.00000   0.00000   0.00000
  16        5PY         0.00000   0.00000   0.00000   0.00000   0.00000
  17        5PZ         1.83211   0.00000   0.00000   0.00000   0.00000
  18        6D 0        0.00000   0.00740   0.00000   0.00000   0.00000
  19        6D+1        0.00000   0.00000   0.00000   0.00000   0.00000
  20        6D-1        0.00000   0.00000   0.00000   0.00000   0.00000
  21        6D+2        0.00000   0.00000   0.00000   0.00000   0.00000
  22        6D-2        0.00000   0.00000   0.00000   0.00000  -0.00325
  23        7D 0        0.00000  -1.64404   0.00000   0.00000   0.00000
  24        7D+1        0.00000   0.00000   0.00000   0.00000   0.00000
  25        7D-1        0.00000   0.00000   0.00000   0.00000   0.00000
  26        7D+2        0.00000   0.00000   0.00000   0.00000   0.00000
  27        7D-2        0.00000   0.00000   0.00000   0.00000  -0.45366
  28 2   O  1S          0.01428   0.06125  -0.00000   0.00000   0.00000
  29        2S          0.02378   0.12820  -0.00000   0.00000   0.00000
  30        2PX         0.00000   0.00000   0.00000   0.00000   0.00000
  31        2PY         0.00000   0.00000   0.00000   0.00000   0.00000
  32        2PZ        -0.18740  -0.08962  -0.00000   0.00000   0.00000
  33        3S          0.01142  -0.97127   0.00000   0.00000   0.00000
  34        3PX         0.00000   0.00000   0.00000   0.00000   0.00000
  35        3PY         0.00000   0.00000   0.00000   0.00000   0.00000
  36        3PZ        -0.62705  -0.48042  -0.00000   0.00000   0.00000
  37        4S         -2.02770   3.85275  -0.00000   0.00000   0.00000
  38        4PX         0.00000   0.00000   0.00000   0.00000   0.00000
  39        4PY         0.00000   0.00000   0.00000   0.00000   0.00000
  40        4PZ         2.71355  -0.42611   0.00000   0.00000   0.00000
  41        5S         -4.68836  -1.72457  -0.00000   0.00000   0.00000
  42        5PX         0.00000   0.00000   0.00000   0.00000   0.00000
  43        5PY         0.00000   0.00000   0.00000   0.00000   0.00000
  44        5PZ         0.07769   0.01934   0.00000   0.00000   0.00000
  45        6D 0        0.02155  -0.00569   0.00000   0.00000   0.00000
  46        6D+1        0.00000   0.00000   0.00000   0.00000   0.00000
  47        6D-1        0.00000   0.00000   0.00000   0.00000   0.00000
  48        6D+2       -0.00000   0.00000  -0.00141   0.00000   0.00000
  49        6D-2        0.00000   0.00000   0.00000  -0.00141   0.00286
  50        7D 0       -0.21652  -0.06943   0.00000   0.00000   0.00000
  51        7D+1        0.00000   0.00000   0.00000   0.00000   0.00000
  52        7D-1        0.00000   0.00000   0.00000   0.00000   0.00000
  53        7D+2       -0.00000  -0.00000   0.70799   0.00000   0.00000
  54        7D-2        0.00000   0.00000   0.00000   0.70799   0.74764
  55 3   O  1S         -0.01428   0.06125   0.00000   0.00000   0.00000
  56        2S         -0.02378   0.12820   0.00000   0.00000   0.00000
  57        2PX         0.00000   0.00000   0.00000   0.00000   0.00000
  58        2PY         0.00000   0.00000   0.00000   0.00000   0.00000
  59        2PZ        -0.18740   0.08962  -0.00000   0.00000   0.00000
  60        3S         -0.01142  -0.97127  -0.00000   0.00000   0.00000
  61        3PX         0.00000   0.00000   0.00000   0.00000   0.00000
  62        3PY         0.00000   0.00000   0.00000   0.00000   0.00000
  63        3PZ        -0.62705   0.48042  -0.00000   0.00000   0.00000
  64        4S          2.02770   3.85275   0.00000   0.00000   0.00000
  65        4PX         0.00000   0.00000   0.00000   0.00000   0.00000
  66        4PY         0.00000   0.00000   0.00000   0.00000   0.00000
  67        4PZ         2.71355   0.42611   0.00000   0.00000   0.00000
  68        5S          4.68836  -1.72457   0.00000   0.00000   0.00000
  69        5PX         0.00000   0.00000   0.00000   0.00000   0.00000
  70        5PY         0.00000   0.00000   0.00000   0.00000   0.00000
  71        5PZ         0.07769  -0.01934   0.00000   0.00000   0.00000
  72        6D 0       -0.02155  -0.00569  -0.00000   0.00000   0.00000
  73        6D+1        0.00000   0.00000   0.00000   0.00000   0.00000
  74        6D-1        0.00000   0.00000   0.00000   0.00000   0.00000
  75        6D+2        0.00000   0.00000   0.00141   0.00000   0.00000
  76        6D-2        0.00000   0.00000   0.00000   0.00141   0.00286
  77        7D 0        0.21652  -0.06943  -0.00000   0.00000   0.00000
  78        7D+1        0.00000   0.00000   0.00000   0.00000   0.00000
  79        7D-1        0.00000   0.00000   0.00000   0.00000   0.00000
  80        7D+2        0.00000  -0.00000  -0.70799   0.00000   0.00000
  81        7D-2        0.00000   0.00000   0.00000  -0.70799   0.74764
                          46        47        48        49        50
                       (DLTG)--  (SGU)--V  (PIU)--V  (PIU)--V  (SGG)--V
     Eigenvalues --     1.87159   2.03948   2.05936   2.05936   2.21825
   1 1   C  1S          0.00000   0.00000   0.00000   0.00000  -0.06637
   2        2S          0.00000   0.00000   0.00000   0.00000  -0.13172
   3        2PX         0.00000   0.00000   0.00000   0.25000   0.00000
   4        2PY         0.00000   0.00000   0.25000   0.00000   0.00000
   5        2PZ         0.00000  -0.10037   0.00000   0.00000   0.00000
   6        3S         -0.00000   0.00000   0.00000   0.00000  -0.07352
   7        3PX         0.00000   0.00000   0.00000   0.28937   0.00000
   8        3PY         0.00000   0.00000   0.28937   0.00000   0.00000
   9        3PZ         0.00000   0.24846   0.00000   0.00000   0.00000
  10        4S         -0.00000   0.00000   0.00000   0.00000  12.68940
  11        4PX         0.00000   0.00000   0.00000   0.53798   0.00000
  12        4PY         0.00000   0.00000   0.53798   0.00000   0.00000
  13        4PZ         0.00000   7.60285   0.00000   0.00000   0.00000
  14        5S         -0.00000   0.00000   0.00000   0.00000   0.86248
  15        5PX         0.00000   0.00000   0.00000  -0.05224   0.00000
  16        5PY         0.00000   0.00000  -0.05224   0.00000   0.00000
  17        5PZ         0.00000   0.17636   0.00000   0.00000   0.00000
  18        6D 0       -0.00000   0.00000   0.00000   0.00000  -0.11074
  19        6D+1        0.00000   0.00000   0.00000   0.00000   0.00000
  20        6D-1        0.00000   0.00000   0.00000   0.00000   0.00000
  21        6D+2       -0.00325   0.00000   0.00000   0.00000  -0.00000
  22        6D-2        0.00000   0.00000   0.00000   0.00000   0.00000
  23        7D 0       -0.00000   0.00000   0.00000   0.00000   4.57999
  24        7D+1        0.00000   0.00000   0.00000   0.00000   0.00000
  25        7D-1        0.00000   0.00000   0.00000   0.00000   0.00000
[...]
                -1.21658224D-15 0.00000000D+00 2.24432289D+01
 HyperPolar    = 1.00056545D-15 5.76611685D-17 3.16318800D-16
                 1.72983506D-16-1.14313514D-14 4.05480382D-30
                -1.92199175D-14 9.36106716D-15-2.73390796D-15
                 1.02722386D-13
 Full mass-weighted force constant matrix:
 Low frequencies ---   -0.0004   -0.0002    0.0001    0.0757    0.0757  780.0905
 Low frequencies ---  780.0905 1505.9628 2553.0363
 Diagonal vibrational polarizability:
        2.5960996       2.5960996       4.5096754
 Diagonal vibrational hyperpolarizability:
        0.0000000       0.0000000      -0.0000000
 Harmonic frequencies (cm**-1), IR intensities (KM/Mole), Raman scattering
 activities (A**4/AMU), depolarization ratios for plane and unpolarized
 incident light, reduced masses (AMU), force constants (mDyne/A),
 and normal coordinates:
                      1                      2                      3
                     PIU                    PIU                    SGG
 Frequencies --    780.0905               780.0905              1505.9628
 Red. masses --     12.8774                12.8774                15.9949
 Frc consts  --      4.6171                 4.6171                21.3728
 IR Inten    --     58.7054                58.7054                 0.0000
 Raman Activ --      0.0000                 0.0000                14.7679
 Depolar (P) --      0.0000                 0.0000                 0.1367
 Depolar (U) --      0.0000                 0.0000                 0.2405
  Atom  AN      X      Y      Z        X      Y      Z        X      Y      Z
     1   6     0.88  -0.00  -0.00     0.00   0.88  -0.00     0.00  -0.00  -0.00
     2   8    -0.33   0.00  -0.00    -0.00  -0.33   0.00    -0.00   0.00   0.71
     3   8    -0.33   0.00   0.00    -0.00  -0.33  -0.00    -0.00   0.00  -0.71
                      4
                     SGU
 Frequencies --   2553.0363
 Red. masses --     12.8774
 Frc consts  --     49.4528
 IR Inten    --   1092.2603
 Raman Activ --      0.0000
 Depolar (P) --      0.0000
 Depolar (U) --      0.0000
  Atom  AN      X      Y      Z
     1   6     0.00   0.00   0.88
     2   8    -0.00  -0.00  -0.33
     3   8    -0.00  -0.00  -0.33

 -------------------
 - Thermochemistry -
 -------------------
 Temperature   298.150 Kelvin.  Pressure   1.00000 Atm.
 Atom     1 has atomic number  6 and mass  12.00000
 Atom     2 has atomic number  8 and mass  15.99491
 Atom     3 has atomic number  8 and mass  15.99491
 Molecular mass:    43.98983 amu.
 Principal axes and moments of inertia in atomic units:
                           1         2         3
     Eigenvalues --     0.00000 147.29154 147.29154
           X           -0.00000   1.00000  -0.00000
           Y            0.00000   0.00000   1.00000
           Z            1.00000   0.00000  -0.00000
 This molecule is a prolate symmetric top.
 Rotational symmetry number  2.
 Rotational temperature (Kelvin)      0.58804
 Rotational constant (GHZ):          12.252851
 Zero-point vibrational energy      33610.2 (Joules/Mol)
                                    8.03302 (Kcal/Mol)
 Vibrational temperatures:   1122.38  1122.38  2166.74  3673.25
          (Kelvin)
 
 Zero-point correction=                           0.012801 (Hartree/Particle)
 Thermal correction to Energy=                    0.015335
 Thermal correction to Enthalpy=                  0.016280
 Thermal correction to Gibbs Free Energy=        -0.007818
 Sum of electronic and zero-point Energies=           -187.684716
 Sum of electronic and thermal Energies=              -187.682182
 Sum of electronic and thermal Enthalpies=            -187.681238
 Sum of electronic and thermal Free Energies=         -187.705336
 
                     E (Thermal)             CV                S
                      KCal/Mol        Cal/Mol-Kelvin    Cal/Mol-Kelvin
 Total                    9.623              6.411             50.717
 Electronic               0.000              0.000              0.000
 Translational            0.889              2.981             37.270
 Rotational               0.592              1.987             12.987
 Vibrational              8.142              1.443              0.460
                       Q            Log10(Q)             Ln(Q)
 Total Bot       0.394373D+04          3.595907          8.279883
 Total V=0       0.304897D+10          9.484153         21.838070
 Vib (Bot)       0.135653D-05         -5.867570        -13.510579
 Vib (V=0)       0.104876D+01          0.020676          0.047608
 Electronic      0.100000D+01          0.000000          0.000000
 Translational   0.114679D+08          7.059482         16.255059
 Rotational      0.253510D+03          2.403995          5.535403
 
                                             CO2 HF 6-311++g(2d,3p) Opt Freq - Fu
 ll - NBO
                                                             IR Spectrum
 
      2                                                   1                                                                          
      5                                                   5                                   7                                      
      5                                                   0                                   8                                      
      3                                                   6                                   0                                      
 
      X                                                                                       X                                      
      X                                                                                       X                                      
      X                                                                                                                              
      X                                                                                                                              
      X                                                                                                                              
      X                                                                                                                              
      X                                                                                                                              
      X                                                                                                                              
      X                                                                                                                              
      X                                                                                                                              
      X                                                                                                                              
      X                                                                                                                              
      X                                                                                                                              
      X                                                                                                                              
      X                                                                                                                              
      X                                                                                                                              
      X                                                                                                                              
      X                                                                                                                              
      X                                                                                                                              
      X                                                                                                                              
 
 
                                             CO2 HF 6-311++g(2d,3p) Opt Freq - Fu
 ll - NBO
                                                            Raman Spectrum
 
      2                                                   1                                                                          
      5                                                   5                                   7                                      
      5                                                   0                                   8                                      
      3                                                   6                                   0                                      
 
                                                          X                                                                          
                                                          X                                                                          
                                                          X                                                                          
                                                          X                                                                          
                                                          X                                                                          
                                                          X                                                                          
                                                          X                                                                          
                                                          X                                                                          
                                                          X                                                                          
                                                          X                                                                          
                                                          X                                                                          
                                                          X                                                                          
                                                          X                                                                          
                                                          X                                                                          
                                                          X                                                                          
                                                          X                                                                          
                                                          X                                                                          
                                                          X                                                                          
                                                          X                                                                          
                                                          X                                                                          
 
 ***** Axes restored to original set *****
 -------------------------------------------------------------------
 Center     Atomic                   Forces (Hartrees/Bohr)
 Number     Number              X              Y              Z
 -------------------------------------------------------------------
      1        6           0.000000000    0.000000000   -0.000000000
      2        8          -0.000000040    0.000000000    0.000000000
      3        8           0.000000040   -0.000000000    0.000000000
 -------------------------------------------------------------------
 Cartesian Forces:  Max     0.000000040 RMS     0.000000019
 Force constants in Cartesian coordinates: 
                1             2             3             4             5 
      1  0.215252D+01
      2  0.000000D+00  0.200966D+00
      3  0.000000D+00  0.000000D+00  0.200966D+00
      4 -0.107626D+01  0.000000D+00  0.000000D+00  0.122452D+01
      5  0.000000D+00 -0.100483D+00  0.000000D+00  0.000000D+00  0.502415D-01
      6  0.000000D+00  0.000000D+00 -0.100483D+00  0.000000D+00  0.000000D+00
      7 -0.107626D+01  0.000000D+00  0.000000D+00 -0.148263D+00  0.000000D+00
      8  0.000000D+00 -0.100483D+00  0.000000D+00  0.000000D+00  0.502415D-01
      9  0.000000D+00  0.000000D+00 -0.100483D+00  0.000000D+00  0.000000D+00
                6             7             8             9 
      6  0.502415D-01
      7  0.000000D+00  0.122452D+01
      8  0.000000D+00  0.000000D+00  0.502415D-01
      9  0.502415D-01  0.000000D+00  0.000000D+00  0.502415D-01
 FormGI is forming the generalized inverse of G from B-inverse, IUseBI=4.
 Force constants in internal coordinates: 
                1             2             3             4 
      1  0.122452D+01
      2  0.148263D+00  0.122452D+01
      3  0.000000D+00  0.000000D+00  0.231328D+00
      4  0.000000D+00  0.000000D+00  0.000000D+00  0.231328D+00
 Leave Link  716 at Fri Sep  6 10:17:30 2024, MaxMem=  1073741824 cpu:               0.1 elap:               0.0
 (Enter /Users/asuyarger/Applications/G16/g16/l103.exe)

 GradGradGradGradGradGradGradGradGradGradGradGradGradGradGradGradGradGrad
 Berny optimization.
 Red2BG is reusing G-inverse.
 Internal  Forces:  Max     0.000000040 RMS     0.000000028
 Search for a local minimum.
 Step number   1 out of a maximum of    2
 All quantities printed in internal units (Hartrees-Bohrs-Radians)
 Second derivative matrix not updated -- analytic derivatives used.
 The second derivative matrix:
                          R1        R2        A1        A2
           R1           1.22452
           R2           0.14826   1.22452
           A1           0.00000  -0.00000   0.23133
           A2           0.00000  -0.00000   0.00000   0.23133
 ITU=  0
     Eigenvalues ---    0.23133   0.23133   1.07626   1.37278
 Angle between quadratic step and forces=  90.00 degrees.
 Linear search not attempted -- first point.
 Iteration  1 RMS(Cart)=  0.00000002 RMS(Int)=  0.00000000
 ITry= 1 IFail=0 DXMaxC= 2.88D-08 DCOld= 1.00D+10 DXMaxT= 3.00D-01 DXLimC= 3.00D+00 Rises=F
 ClnCor:  largest displacement from symmetrization is 2.38D-14 for atom     1.
 Variable       Old X    -DE/DX   Delta X   Delta X   Delta X     New X
                                 (Linear)    (Quad)   (Total)
    R1        2.14577  -0.00000   0.00000  -0.00000  -0.00000   2.14577
    R2        2.14577  -0.00000   0.00000  -0.00000  -0.00000   2.14577
    A1        3.14159  -0.00000   0.00000  -0.00000   0.00000   3.14159
    A2        3.14159  -0.00000   0.00000  -0.00000   0.00000   3.14159
         Item               Value     Threshold  Converged?
 Maximum Force            0.000000     0.000015     YES
 RMS     Force            0.000000     0.000010     YES
 Maximum Displacement     0.000000     0.000060     YES
 RMS     Displacement     0.000000     0.000040     YES
 Predicted change in Energy=-1.141809D-15
 Optimization completed.
    -- Stationary point found.
                           ----------------------------
                           !   Optimized Parameters   !
                           ! (Angstroms and Degrees)  !
 --------------------------                            --------------------------
 ! Name  Definition              Value          Derivative Info.                !
 --------------------------------------------------------------------------------
 ! R1    R(1,2)                  1.1355         -DE/DX =    0.0                 !
 ! R2    R(1,3)                  1.1355         -DE/DX =    0.0                 !
 ! A1    L(2,1,3,-2,-1)        180.0            -DE/DX =    0.0                 !
 ! A2    L(2,1,3,-3,-2)        180.0            -DE/DX =    0.0                 !
 --------------------------------------------------------------------------------
 GradGradGradGradGradGradGradGradGradGradGradGradGradGradGradGradGradGrad

 Leave Link  103 at Fri Sep  6 10:17:30 2024, MaxMem=  1073741824 cpu:               0.0 elap:               0.0
 (Enter /Users/asuyarger/Applications/G16/g16/l9999.exe)
 Dipole is zero, so no output in dipole orientation.

 ----------------------------------------------------------------------

 Electric dipole moment (input orientation):
 (Debye = 10**-18 statcoulomb cm , SI units = C m)
                  (au)            (Debye)         (10**-30 SI)
   Tot        0.000000D+00      0.000000D+00      0.000000D+00
   x          0.000000D+00      0.000000D+00      0.000000D+00
   y          0.000000D+00      0.000000D+00      0.000000D+00
   z          0.000000D+00      0.000000D+00      0.000000D+00

 Dipole polarizability, Alpha (input orientation).
 (esu units = cm**3 , SI units = C**2 m**2 J**-1)
 Alpha(0;0):
               (au)            (10**-24 esu)      (10**-40 SI)
   iso        0.138739D+02      0.205590D+01      0.228749D+01
   aniso      0.128540D+02      0.190477D+01      0.211934D+01
   xx         0.224432D+02      0.332574D+01      0.370039D+01
   yx         0.000000D+00      0.000000D+00      0.000000D+00
   yy         0.958920D+01      0.142097D+01      0.158105D+01
   zx         0.000000D+00      0.000000D+00      0.000000D+00
   zy         0.000000D+00      0.000000D+00      0.000000D+00
   zz         0.958920D+01      0.142097D+01      0.158105D+01

 ----------------------------------------------------------------------
 1\1\GINC-JEFFSMACSTUDIO\Freq\RHF\6-311++G(2d,3p)\C1O2\ROOT\06-Sep-2024
 \0\\#P Geom=AllCheck Guess=TCheck SCRF=Check GenChk RHF/6-311++G(2d,3p
 ) Freq\\CO2 HF 6-311++g(2d,3p) Opt Freq - Full - NBO\\0,1\C,2.92043382
 ,0.67811934,0.\O,4.0559257904,0.67811934,0.\O,1.7849418496,0.67811934,
 0.\\Version=EM64M-G16RevA.03\State=1-SGG\HF=-187.6975178\RMSD=6.454e-1
 0\RMSF=1.866e-08\ZeroPoint=0.0128014\Thermal=0.0153354\Dipole=0.,0.,0.
 \DipoleDeriv=3.126856,0.,0.,0.,0.7249098,0.,0.,0.,0.7249098,-1.563428,
 0.,0.,0.,-0.3624549,0.,0.,0.,-0.3624549,-1.563428,0.,0.,0.,-0.3624549,
 0.,0.,0.,-0.3624549\Polar=22.4432289,0.,9.5891972,0.,0.,9.5891972\Pola
 rDeriv=0.,0.,0.,0.,0.,0.,0.,0.,0.,0.,0.,0.,0.,0.,0.,0.,0.,0.,10.087066
 5,0.,2.3168522,0.,0.,2.3168522,0.,2.9952039,0.,0.,0.,0.,0.,0.,0.,2.995
 2039,0.,0.,-10.0870665,0.,-2.3168522,0.,0.,-2.3168522,0.,-2.9952039,0.
 ,0.,0.,0.,0.,0.,0.,-2.9952039,0.,0.\HyperPolar=0.,0.,0.,0.,0.,0.,0.,0.
 ,0.,0.\Quadrupole=-2.4675952,1.2337976,1.2337976,0.,0.,0.\PG=D*H [O(C1
 ),C*(O1.O1)]\NImag=0\\2.15251564,0.,0.20096589,0.,0.,0.20096589,-1.076
 25782,0.,0.,1.22452040,0.,-0.10048295,0.,0.,0.05024148,0.,0.,-0.100482
 95,0.,0.,0.05024148,-1.07625782,0.,0.,-0.14826257,0.,0.,1.22452040,0.,
 -0.10048295,0.,0.,0.05024147,0.,0.,0.05024148,0.,0.,-0.10048295,0.,0.,
 0.05024147,0.,0.,0.05024148\\0.,0.,0.,0.00000004,0.,0.,-0.00000004,0.,
 0.\\\@


 WE HAVE SEEN THAT MAN ON THE AVERAGE DOES NOT LIVE ABOVE
 TWO-AND-TWENTY YEARS.  DURING THESE TWO AND TWENTY
 YEARS HE IS LIABLE TO TWO AND TWENTY THOUSAND EVILS,
 MANY OF WHICH ARE INCURABLE.  YET EVEN IN THIS DREADFUL STATE
 MEN STILL STRUT AND POSE ON THE STAGE OF LIFE.
 THEY MAKE LOVE AT THE RISK OF DESTRUCTION,
 INTRIGUE, CARRY ON WAR, AND FORM PROJECTS, JUST AS IF THEY
 WERE TO LIVE IN LUXURY AND HAPPINESS FOR A THOUSAND
 AGES.

                                              -- VOLTAIRE
 Job cpu time:       0 days  0 hours  0 minutes  3.3 seconds.
 Elapsed time:       0 days  0 hours  0 minutes  2.8 seconds.
 File lengths (MBytes):  RWF=      7 Int=      0 D2E=      0 Chk=      2 Scr=      1
 Normal termination of Gaussian 16 at Fri Sep  6 10:17:30 2024.
