 Entering Gaussian System, Link 0=g16
 Input=/Users/asuyarger/Downloads/H2O_DFT_WB97XD_apVTZ_Opt_Freq_Full_NBO.gjf
 Output=/Users/asuyarger/Downloads/H2O_DFT_WB97XD_apVTZ_Opt_Freq_Full_NBO.log
 Initial command:
 /Users/asuyarger/Applications/G16/g16/l1.exe "/Users/asuyarger/Applications/G16/scratch/Gau-88950.inp" -scrdir="/Users/asuyarger/Applications/G16/scratch/"
 Entering Link 1 = /Users/asuyarger/Applications/G16/g16/l1.exe PID=     88951.
  
 Copyright (c) 1988,1990,1992,1993,1995,1998,2003,2009,2016,
            Gaussian, Inc.  All Rights Reserved.
  
 This is part of the Gaussian(R) 16 program.  It is based on
 the Gaussian(R) 09 system (copyright 2009, Gaussian, Inc.),
 the Gaussian(R) 03 system (copyright 2003, Gaussian, Inc.),
 the Gaussian(R) 98 system (copyright 1998, Gaussian, Inc.),
 the Gaussian(R) 94 system (copyright 1995, Gaussian, Inc.),
 the Gaussian 92(TM) system (copyright 1992, Gaussian, Inc.),
 the Gaussian 90(TM) system (copyright 1990, Gaussian, Inc.),
 the Gaussian 88(TM) system (copyright 1988, Gaussian, Inc.),
 the Gaussian 86(TM) system (copyright 1986, Carnegie Mellon
 University), and the Gaussian 82(TM) system (copyright 1983,
 Carnegie Mellon University). Gaussian is a federally registered
 trademark of Gaussian, Inc.
  
 This software contains proprietary and confidential information,
 including trade secrets, belonging to Gaussian, Inc.
  
 This software is provided under written license and may be
 used, copied, transmitted, or stored only in accord with that
 written license.
  
 The following legend is applicable only to US Government
 contracts under FAR:
  
                    RESTRICTED RIGHTS LEGEND
  
 Use, reproduction and disclosure by the US Government is
 subject to restrictions as set forth in subparagraphs (a)
 and (c) of the Commercial Computer Software - Restricted
 Rights clause in FAR 52.227-19.
  
 Gaussian, Inc.
 340 Quinnipiac St., Bldg. 40, Wallingford CT 06492
  
  
 ---------------------------------------------------------------
 Warning -- This program may not be used in any manner that
 competes with the business of Gaussian, Inc. or will provide
 assistance to any competitor of Gaussian, Inc.  The licensee
 of this program is prohibited from giving any competitor of
 Gaussian, Inc. access to this program.  By using this program,
 the user acknowledges that Gaussian, Inc. is engaged in the
 business of creating and licensing software in the field of
 computational chemistry and represents and warrants to the
 licensee that it is not a competitor of Gaussian, Inc. and that
 it will not use this program in any manner prohibited above.
 ---------------------------------------------------------------
  

 Cite this work as:
 Gaussian 16, Revision A.03,
 M. J. Frisch, G. W. Trucks, H. B. Schlegel, G. E. Scuseria, 
 M. A. Robb, J. R. Cheeseman, G. Scalmani, V. Barone, 
 G. A. Petersson, H. Nakatsuji, X. Li, M. Caricato, A. V. Marenich, 
 J. Bloino, B. G. Janesko, R. Gomperts, B. Mennucci, H. P. Hratchian, 
 J. V. Ortiz, A. F. Izmaylov, J. L. Sonnenberg, D. Williams-Young, 
 F. Ding, F. Lipparini, F. Egidi, J. Goings, B. Peng, A. Petrone, 
 T. Henderson, D. Ranasinghe, V. G. Zakrzewski, J. Gao, N. Rega, 
 G. Zheng, W. Liang, M. Hada, M. Ehara, K. Toyota, R. Fukuda, 
 J. Hasegawa, M. Ishida, T. Nakajima, Y. Honda, O. Kitao, H. Nakai, 
 T. Vreven, K. Throssell, J. A. Montgomery, Jr., J. E. Peralta, 
 F. Ogliaro, M. J. Bearpark, J. J. Heyd, E. N. Brothers, K. N. Kudin, 
 V. N. Staroverov, T. A. Keith, R. Kobayashi, J. Normand, 
 K. Raghavachari, A. P. Rendell, J. C. Burant, S. S. Iyengar, 
 J. Tomasi, M. Cossi, J. M. Millam, M. Klene, C. Adamo, R. Cammi, 
 J. W. Ochterski, R. L. Martin, K. Morokuma, O. Farkas, 
 J. B. Foresman, and D. J. Fox, Gaussian, Inc., Wallingford CT, 2016.
 
 ******************************************
 Gaussian 16:  EM64M-G16RevA.03 25-Dec-2016
                 6-Sep-2024 
 ******************************************
 %nprocshared=8
 Will use up to    8 processors via shared memory.
 %mem=8GB
 %chk=H2O_DFT_WB97XD_apVTZ_Opt_Freq_Full_NBO.chk
 ----------------------------------------------------------------------
 #p opt=tight freq=raman wb97xd/aug-cc-pvtz guess=save pop=(hirshfeld,f
 ull,nbo) geom=connectivity polar
 ----------------------------------------------------------------------
 1/7=10,18=20,19=15,26=3,38=1,57=2/1,3;
 2/9=110,12=2,17=6,18=5,40=1/2;
 3/5=16,6=1,7=10,11=2,25=1,30=1,71=1,74=-58/1,2,3;
 4//1;
 5/5=2,38=5,98=1/2;
 6/7=3,28=1,40=1,79=1/1,7;
 7//1,2,3,16;
 1/7=10,18=20,19=15,26=3/3(2);
 2/9=110/2;
 99//99;
 2/9=110/2;
 3/5=16,6=1,7=10,11=2,25=1,30=1,71=1,74=-58/1,2,3;
 4/5=5,16=3,69=1/1;
 5/5=2,38=5,98=1/2;
 7//1,2,3,16;
 1/7=10,18=20,19=15,26=3/3(-5);
 2/9=110/2;
 6/7=3,19=2,28=1,40=1,79=1/1,7;
 99/9=1/99;
 Leave Link    1 at Fri Sep  6 10:45:33 2024, MaxMem=  1073741824 cpu:               0.2 elap:               0.0
 (Enter /Users/asuyarger/Applications/G16/g16/l101.exe)
 -------------------------------------------------
 H2O DFT WB97XDS aug-cc-pVTZ Opt Freq - Full - NBO
 -------------------------------------------------
 Symbolic Z-matrix:
 Charge =  0 Multiplicity = 1
 O                    -0.3165    0.44293   0.00414 
 H                     0.6435    0.44317   0.00414 
 H                    -0.63673   1.34795   0.00414 
 
 ITRead=  0  0  0
 MicOpt= -1 -1 -1
 NAtoms=      3 NQM=        3 NQMF=       0 NMMI=      0 NMMIF=      0
                NMic=       0 NMicF=      0.
                    Isotopes and Nuclear Properties:
 (Nuclear quadrupole moments (NQMom) in fm**2, nuclear magnetic moments (NMagM)
  in nuclear magnetons)

  Atom         1           2           3
 IAtWgt=          16           1           1
 AtmWgt=  15.9949146   1.0078250   1.0078250
 NucSpn=           0           1           1
 AtZEff=  -0.0000000  -0.0000000  -0.0000000
 NQMom=    0.0000000   0.0000000   0.0000000
 NMagM=    0.0000000   2.7928460   2.7928460
 AtZNuc=   8.0000000   1.0000000   1.0000000
 Leave Link  101 at Fri Sep  6 10:45:33 2024, MaxMem=  1073741824 cpu:               1.2 elap:               0.2
 (Enter /Users/asuyarger/Applications/G16/g16/l103.exe)

 GradGradGradGradGradGradGradGradGradGradGradGradGradGradGradGradGradGrad
 Berny optimization.
 Initialization pass.
                           ----------------------------
                           !    Initial Parameters    !
                           ! (Angstroms and Degrees)  !
 --------------------------                            --------------------------
 ! Name  Definition              Value          Derivative Info.                !
 --------------------------------------------------------------------------------
 ! R1    R(1,2)                  0.96           estimate D2E/DX2                !
 ! R2    R(1,3)                  0.96           estimate D2E/DX2                !
 ! A1    A(2,1,3)              109.4712         estimate D2E/DX2                !
 --------------------------------------------------------------------------------
 Trust Radius=3.00D-01 FncErr=1.00D-07 GrdErr=1.00D-06 EigMax=2.50D+02 EigMin=1.00D-04
 Number of steps in this run=     20 maximum allowed number of steps=    100.
 GradGradGradGradGradGradGradGradGradGradGradGradGradGradGradGradGradGrad

 Leave Link  103 at Fri Sep  6 10:45:33 2024, MaxMem=  1073741824 cpu:               0.1 elap:               0.0
 (Enter /Users/asuyarger/Applications/G16/g16/l202.exe)
                          Input orientation:                          
 ---------------------------------------------------------------------
 Center     Atomic      Atomic             Coordinates (Angstroms)
 Number     Number       Type             X           Y           Z
 ---------------------------------------------------------------------
      1          8           0       -0.316504    0.442931    0.004142
      2          1           0        0.643496    0.443172    0.004142
      3          1           0       -0.636732    1.347947    0.004142
 ---------------------------------------------------------------------
                    Distance matrix (angstroms):
                    1          2          3
     1  O    0.000000
     2  H    0.960000   0.000000
     3  H    0.960000   1.567673   0.000000
 Stoichiometry    H2O
 Framework group  C2V[C2(O),SGV(H2)]
 Deg. of freedom     2
 Full point group                 C2V     NOp   4
 Largest Abelian subgroup         C2V     NOp   4
 Largest concise Abelian subgroup C2      NOp   2
                         Standard orientation:                         
 ---------------------------------------------------------------------
 Center     Atomic      Atomic             Coordinates (Angstroms)
 Number     Number       Type             X           Y           Z
 ---------------------------------------------------------------------
      1          8           0        0.000000   -0.000000    0.110851
      2          1           0       -0.000000   -0.783837   -0.443405
      3          1           0        0.000000    0.783837   -0.443405
 ---------------------------------------------------------------------
 Rotational constants (GHZ):         919.0226998         408.0852142         282.5991552
 Leave Link  202 at Fri Sep  6 10:45:33 2024, MaxMem=  1073741824 cpu:               0.0 elap:               0.0
 (Enter /Users/asuyarger/Applications/G16/g16/l301.exe)
 Standard basis: Aug-CC-pVTZ (5D, 7F)
 Ernie: Thresh=  0.10000D-02 Tol=  0.10000D-05 Strict=F.
 Ernie:  3 primitive shells out of 52 were deleted.
 There are    42 symmetry adapted cartesian basis functions of A1  symmetry.
 There are    12 symmetry adapted cartesian basis functions of A2  symmetry.
 There are    20 symmetry adapted cartesian basis functions of B1  symmetry.
 There are    31 symmetry adapted cartesian basis functions of B2  symmetry.
 There are    35 symmetry adapted basis functions of A1  symmetry.
 There are    12 symmetry adapted basis functions of A2  symmetry.
 There are    18 symmetry adapted basis functions of B1  symmetry.
 There are    27 symmetry adapted basis functions of B2  symmetry.
    92 basis functions,   126 primitive gaussians,   105 cartesian basis functions
     5 alpha electrons        5 beta electrons
       nuclear repulsion energy         9.1571759434 Hartrees.
 IExCor= 4639 DFT=T Ex+Corr=wB97XD ExCW=0 ScaHFX=  1.000000
 ScaDFX=  1.000000  1.000000  1.000000  1.000000 ScalE2=  1.000000  1.000000
 IRadAn=      5 IRanWt=     -1 IRanGd=            0 ICorTp=0 IEmpDi=121
 HFx  wShort=  0.000000 wLong=  0.200000 cFull=  0.222036 cShort=  0.000000 cLong=  0.777964
 DFx  wShort=  0.000000 wLong=  0.200000 cFull=  0.000000 cShort=  0.000000 cLong=  1.000000
 NAtoms=    3 NActive=    3 NUniq=    2 SFac= 2.25D+00 NAtFMM=   60 NAOKFM=F Big=F
 Integral buffers will be    131072 words long.
 Raffenetti 2 integral format.
 Two-electron integral symmetry is turned on.
 R6Disp:  Grimme-D2 Dispersion energy=       -0.0000326794 Hartrees.
 Nuclear repulsion after empirical dispersion term =        9.1571432640 Hartrees.
 Leave Link  301 at Fri Sep  6 10:45:33 2024, MaxMem=  1073741824 cpu:               0.1 elap:               0.0
 (Enter /Users/asuyarger/Applications/G16/g16/l302.exe)
 NPDir=0 NMtPBC=     1 NCelOv=     1 NCel=       1 NClECP=     1 NCelD=      1
         NCelK=      1 NCelE2=     1 NClLst=     1 CellRange=     0.0.
 One-electron integrals computed using PRISM.
 One-electron integral symmetry used in STVInt
 NBasis=    92 RedAO= T EigKep=  3.77D-04  NBF=    35    12    18    27
 NBsUse=    92 1.00D-06 EigRej= -1.00D+00 NBFU=    35    12    18    27
 Precomputing XC quadrature grid using
 IXCGrd= 4 IRadAn=           5 IRanWt=          -1 IRanGd=           0 AccXCQ= 0.00D+00.
 Generated NRdTot=       0 NPtTot=           0 NUsed=           0 NTot=          32
 NSgBfM=   105   105   105   105   105 MxSgAt=     3 MxSgA2=     3.
 Leave Link  302 at Fri Sep  6 10:45:33 2024, MaxMem=  1073741824 cpu:               0.7 elap:               0.1
 (Enter /Users/asuyarger/Applications/G16/g16/l303.exe)
 DipDrv:  MaxL=1.
 Leave Link  303 at Fri Sep  6 10:45:33 2024, MaxMem=  1073741824 cpu:               0.1 elap:               0.0
 (Enter /Users/asuyarger/Applications/G16/g16/l401.exe)
 ExpMin= 2.53D-02 ExpMax= 1.53D+04 ExpMxC= 5.22D+02 IAcc=3 IRadAn=         5 AccDes= 0.00D+00
 Harris functional with IExCor= 4639 and IRadAn=       5 diagonalized for initial guess.
 HarFok:  IExCor= 4639 AccDes= 0.00D+00 IRadAn=         5 IDoV= 1 UseB2=F ITyADJ=14
 ICtDFT=  3500011 ScaDFX=  1.000000  1.000000  1.000000  1.000000
 FoFCou: FMM=F IPFlag=           0 FMFlag=      100000 FMFlg1=           0
         NFxFlg=           0 DoJE=T BraDBF=F KetDBF=T FulRan=T
         wScrn=  0.000000 ICntrl=       500 IOpCl=  0 I1Cent=   200000004 NGrid=           0
         NMat0=    1 NMatS0=      1 NMatT0=    0 NMatD0=    1 NMtDS0=    0 NMtDT0=    0
 Petite list used in FoFCou.
 Harris En= -73.6347820026646    
 JPrj=0 DoOrth=F DoCkMO=F.
 Initial guess orbital symmetries:
       Occupied  (A1) (A1) (B2) (A1) (B1)
       Virtual   (A1) (B2) (A1) (B1) (A1) (B2) (B2) (A1) (A2) (B1)
                 (A1) (B2) (A1) (B2) (B2) (A1) (A1) (A2) (B1) (A1)
                 (B1) (A1) (B1) (B2) (A2) (B2) (A1) (A1) (B2) (B1)
                 (B2) (A1) (A2) (B2) (A2) (A1) (B1) (A1) (B2) (B2)
                 (A1) (B1) (A2) (A1) (A1) (B1) (B2) (A1) (B1) (B2)
                 (A1) (A2) (B2) (B2) (A1) (B1) (A2) (A1) (B2) (B1)
                 (B1) (A2) (B2) (A1) (A1) (B2) (B2) (A2) (A1) (B2)
                 (B1) (A1) (A1) (B2) (B1) (A1) (B1) (B1) (A1) (A2)
                 (A2) (B2) (A1) (B2) (A1) (B2) (A1)
 The electronic state of the initial guess is 1-A1.
 Leave Link  401 at Fri Sep  6 10:45:33 2024, MaxMem=  1073741824 cpu:               1.0 elap:               0.2
 (Enter /Users/asuyarger/Applications/G16/g16/l502.exe)
 Keep R1 ints in memory in symmetry-blocked form, NReq=25752486.
 FoFCou: FMM=F IPFlag=           0 FMFlag=           0 FMFlg1=           0
         NFxFlg=           0 DoJE=F BraDBF=F KetDBF=F FulRan=T
         wScrn=  0.000000 ICntrl=       600 IOpCl=  0 I1Cent=           0 NGrid=           0
         NMat0=    1 NMatS0=   4278 NMatT0=    0 NMatD0=    1 NMtDS0=    0 NMtDT0=    0
 Petite list used in FoFCou.
 Closed shell SCF:
 Using DIIS extrapolation, IDIIS=  1040.
 NGot=  1073741824 LenX=  1071374588 LenY=  1071363122
 Requested convergence on RMS density matrix=1.00D-08 within 128 cycles.
 Requested convergence on MAX density matrix=1.00D-06.
 Requested convergence on             energy=1.00D-06.
 No special actions if energy rises.

 Cycle   1  Pass 1  IDiag  1:
 E= -76.4272543188291    
 DIIS: error= 5.94D-02 at cycle   1 NSaved=   1.
 NSaved= 1 IEnMin= 1 EnMin= -76.4272543188291     IErMin= 1 ErrMin= 5.94D-02
 ErrMax= 5.94D-02  0.00D+00 EMaxC= 1.00D-01 BMatC= 9.61D-02 BMatP= 9.61D-02
 IDIUse=3 WtCom= 4.06D-01 WtEn= 5.94D-01
 Coeff-Com:  0.100D+01
 Coeff-En:   0.100D+01
 Coeff:      0.100D+01
 Gap=     0.457 Goal=   None    Shift=    0.000
 GapD=    0.457 DampG=2.000 DampE=0.500 DampFc=1.0000 IDamp=-1.
 RMSDP=1.79D-03 MaxDP=5.85D-02              OVMax= 3.38D-02

 Cycle   2  Pass 1  IDiag  1:
 E= -76.4378674278467     Delta-E=       -0.010613109018 Rises=F Damp=F
 DIIS: error= 9.03D-03 at cycle   2 NSaved=   2.
 NSaved= 2 IEnMin= 2 EnMin= -76.4378674278467     IErMin= 2 ErrMin= 9.03D-03
 ErrMax= 9.03D-03  0.00D+00 EMaxC= 1.00D-01 BMatC= 3.01D-03 BMatP= 9.61D-02
 IDIUse=3 WtCom= 9.10D-01 WtEn= 9.03D-02
 Coeff-Com:  0.984D-01 0.902D+00
 Coeff-En:   0.000D+00 0.100D+01
 Coeff:      0.895D-01 0.910D+00
 Gap=     0.419 Goal=   None    Shift=    0.000
 RMSDP=4.46D-04 MaxDP=1.39D-02 DE=-1.06D-02 OVMax= 1.80D-02

 Cycle   3  Pass 1  IDiag  1:
 E= -76.4382283733016     Delta-E=       -0.000360945455 Rises=F Damp=F
 DIIS: error= 7.85D-03 at cycle   3 NSaved=   3.
 NSaved= 3 IEnMin= 3 EnMin= -76.4382283733016     IErMin= 3 ErrMin= 7.85D-03
 ErrMax= 7.85D-03  0.00D+00 EMaxC= 1.00D-01 BMatC= 1.98D-03 BMatP= 3.01D-03
 IDIUse=3 WtCom= 9.22D-01 WtEn= 7.85D-02
 Coeff-Com:  0.185D-01 0.462D+00 0.519D+00
 Coeff-En:   0.000D+00 0.433D+00 0.567D+00
 Coeff:      0.171D-01 0.460D+00 0.523D+00
 Gap=     0.437 Goal=   None    Shift=    0.000
 RMSDP=2.25D-04 MaxDP=6.19D-03 DE=-3.61D-04 OVMax= 1.04D-02

 Cycle   4  Pass 1  IDiag  1:
 E= -76.4394308796961     Delta-E=       -0.001202506394 Rises=F Damp=F
 DIIS: error= 4.76D-04 at cycle   4 NSaved=   4.
 NSaved= 4 IEnMin= 4 EnMin= -76.4394308796961     IErMin= 4 ErrMin= 4.76D-04
 ErrMax= 4.76D-04  0.00D+00 EMaxC= 1.00D-01 BMatC= 1.40D-05 BMatP= 1.98D-03
 IDIUse=3 WtCom= 9.95D-01 WtEn= 4.76D-03
 Coeff-Com:  0.143D-02 0.614D-01 0.123D+00 0.814D+00
 Coeff-En:   0.000D+00 0.000D+00 0.000D+00 0.100D+01
 Coeff:      0.142D-02 0.611D-01 0.122D+00 0.815D+00
 Gap=     0.436 Goal=   None    Shift=    0.000
 RMSDP=4.21D-05 MaxDP=1.74D-03 DE=-1.20D-03 OVMax= 1.08D-03

 Cycle   5  Pass 1  IDiag  1:
 E= -76.4394412245931     Delta-E=       -0.000010344897 Rises=F Damp=F
 DIIS: error= 9.20D-05 at cycle   5 NSaved=   5.
 NSaved= 5 IEnMin= 5 EnMin= -76.4394412245931     IErMin= 5 ErrMin= 9.20D-05
 ErrMax= 9.20D-05  0.00D+00 EMaxC= 1.00D-01 BMatC= 2.59D-07 BMatP= 1.40D-05
 IDIUse=1 WtCom= 1.00D+00 WtEn= 0.00D+00
 Coeff-Com: -0.108D-02-0.274D-01-0.292D-01-0.812D-01 0.114D+01
 Coeff:     -0.108D-02-0.274D-01-0.292D-01-0.812D-01 0.114D+01
 Gap=     0.436 Goal=   None    Shift=    0.000
 RMSDP=1.59D-05 MaxDP=6.19D-04 DE=-1.03D-05 OVMax= 5.04D-04

 Cycle   6  Pass 1  IDiag  1:
 E= -76.4394419205978     Delta-E=       -0.000000696005 Rises=F Damp=F
 DIIS: error= 1.65D-05 at cycle   6 NSaved=   6.
 NSaved= 6 IEnMin= 6 EnMin= -76.4394419205978     IErMin= 6 ErrMin= 1.65D-05
 ErrMax= 1.65D-05  0.00D+00 EMaxC= 1.00D-01 BMatC= 7.45D-09 BMatP= 2.59D-07
 IDIUse=1 WtCom= 1.00D+00 WtEn= 0.00D+00
 Coeff-Com:  0.212D-03 0.412D-02 0.199D-02-0.378D-02-0.224D+00 0.122D+01
 Coeff:      0.212D-03 0.412D-02 0.199D-02-0.378D-02-0.224D+00 0.122D+01
 Gap=     0.436 Goal=   None    Shift=    0.000
 RMSDP=2.41D-06 MaxDP=8.96D-05 DE=-6.96D-07 OVMax= 1.10D-04

 Cycle   7  Pass 1  IDiag  1:
 E= -76.4394419459010     Delta-E=       -0.000000025303 Rises=F Damp=F
 DIIS: error= 2.20D-06 at cycle   7 NSaved=   7.
 NSaved= 7 IEnMin= 7 EnMin= -76.4394419459010     IErMin= 7 ErrMin= 2.20D-06
 ErrMax= 2.20D-06  0.00D+00 EMaxC= 1.00D-01 BMatC= 1.65D-10 BMatP= 7.45D-09
 IDIUse=1 WtCom= 1.00D+00 WtEn= 0.00D+00
 Coeff-Com: -0.218D-04-0.255D-03 0.328D-03 0.156D-02 0.232D-01-0.264D+00
 Coeff-Com:  0.124D+01
 Coeff:     -0.218D-04-0.255D-03 0.328D-03 0.156D-02 0.232D-01-0.264D+00
 Coeff:      0.124D+01
 Gap=     0.436 Goal=   None    Shift=    0.000
 RMSDP=2.20D-07 MaxDP=3.07D-06 DE=-2.53D-08 OVMax= 2.20D-05

 Cycle   8  Pass 1  IDiag  1:
 E= -76.4394419464769     Delta-E=       -0.000000000576 Rises=F Damp=F
 DIIS: error= 3.97D-07 at cycle   8 NSaved=   8.
 NSaved= 8 IEnMin= 8 EnMin= -76.4394419464769     IErMin= 8 ErrMin= 3.97D-07
 ErrMax= 3.97D-07  0.00D+00 EMaxC= 1.00D-01 BMatC= 4.78D-12 BMatP= 1.65D-10
 IDIUse=1 WtCom= 1.00D+00 WtEn= 0.00D+00
 Coeff-Com:  0.173D-05-0.157D-04-0.145D-03-0.243D-03-0.679D-03 0.327D-01
 Coeff-Com: -0.249D+00 0.122D+01
 Coeff:      0.173D-05-0.157D-04-0.145D-03-0.243D-03-0.679D-03 0.327D-01
 Coeff:     -0.249D+00 0.122D+01
 Gap=     0.436 Goal=   None    Shift=    0.000
 RMSDP=6.05D-08 MaxDP=1.25D-06 DE=-5.76D-10 OVMax= 2.28D-06

 Cycle   9  Pass 1  IDiag  1:
 E= -76.4394419464851     Delta-E=       -0.000000000008 Rises=F Damp=F
 DIIS: error= 3.60D-08 at cycle   9 NSaved=   9.
 NSaved= 9 IEnMin= 9 EnMin= -76.4394419464851     IErMin= 9 ErrMin= 3.60D-08
 ErrMax= 3.60D-08  0.00D+00 EMaxC= 1.00D-01 BMatC= 3.55D-14 BMatP= 4.78D-12
 IDIUse=1 WtCom= 1.00D+00 WtEn= 0.00D+00
 Coeff-Com: -0.947D-07 0.547D-05 0.242D-04 0.202D-04-0.267D-03-0.202D-02
 Coeff-Com:  0.318D-01-0.268D+00 0.124D+01
 Coeff:     -0.947D-07 0.547D-05 0.242D-04 0.202D-04-0.267D-03-0.202D-02
 Coeff:      0.318D-01-0.268D+00 0.124D+01
 Gap=     0.436 Goal=   None    Shift=    0.000
 RMSDP=4.70D-09 MaxDP=9.93D-08 DE=-8.17D-12 OVMax= 2.61D-07

 SCF Done:  E(RwB97XD) =  -76.4394419465     A.U. after    9 cycles
            NFock=  9  Conv=0.47D-08     -V/T= 2.0058
 KE= 7.600105723712D+01 PE=-1.990271348442D+02 EE= 3.742949239660D+01
 Leave Link  502 at Fri Sep  6 10:45:34 2024, MaxMem=  1073741824 cpu:               4.2 elap:               0.6
 (Enter /Users/asuyarger/Applications/G16/g16/l601.exe)
 Copying SCF densities to generalized density rwf, IOpCl= 0 IROHF=0.

 **********************************************************************

            Population analysis using the SCF density.

 **********************************************************************

 Orbital symmetries:
       Occupied  (A1) (A1) (B2) (A1) (B1)
       Virtual   (A1) (B2) (A1) (B1) (A1) (B2) (B2) (A1) (A2) (B1)
                 (A1) (B2) (A1) (B2) (B2) (A1) (A1) (A2) (B1) (A1)
                 (B1) (A1) (B1) (B2) (A2) (B2) (A1) (A1) (B2) (B1)
                 (B2) (A1) (A2) (B2) (A2) (A1) (B1) (A1) (B2) (B2)
                 (A1) (B1) (A2) (A1) (A1) (B1) (B2) (A1) (B2) (B1)
                 (A1) (A2) (B2) (B2) (A1) (B1) (A2) (A1) (B2) (B1)
                 (A2) (B1) (A1) (B2) (A1) (B2) (B2) (A2) (A1) (B2)
                 (B1) (A1) (A1) (B2) (B1) (A1) (B1) (B1) (A1) (A2)
                 (A2) (B2) (A1) (B2) (A1) (B2) (A1)
 The electronic state is 1-A1.
 Alpha  occ. eigenvalues --  -19.25693  -1.11504  -0.63246  -0.47435  -0.40593
 Alpha virt. eigenvalues --    0.02962   0.05051   0.12769   0.15767   0.16373
 Alpha virt. eigenvalues --    0.17371   0.21823   0.23899   0.26024   0.29581
 Alpha virt. eigenvalues --    0.29992   0.36664   0.39249   0.41611   0.55167
 Alpha virt. eigenvalues --    0.58947   0.65419   0.66678   0.67184   0.77692
 Alpha virt. eigenvalues --    0.79766   0.81117   0.85732   0.85917   0.88064
 Alpha virt. eigenvalues --    0.89089   0.92157   0.96986   0.97940   1.01119
 Alpha virt. eigenvalues --    1.08637   1.12715   1.13722   1.18923   1.41994
 Alpha virt. eigenvalues --    1.47582   1.48765   1.65964   1.66286   1.84496
 Alpha virt. eigenvalues --    1.94927   2.07859   2.14204   2.15032   2.21762
 Alpha virt. eigenvalues --    2.24615   2.26276   2.30132   2.52808   2.53065
 Alpha virt. eigenvalues --    2.56769   2.69704   2.70227   3.39928   3.53266
 Alpha virt. eigenvalues --    3.76133   3.79608   4.00648   4.01508   4.12897
 Alpha virt. eigenvalues --    4.16670   4.16920   4.22516   4.23435   4.38662
 Alpha virt. eigenvalues --    4.51257   4.86478   4.90846   5.01539   5.03842
 Alpha virt. eigenvalues --    5.19231   5.42773   5.78022   6.17341   6.33330
 Alpha virt. eigenvalues --    6.46842   6.74541   6.84940   6.85723   6.92059
 Alpha virt. eigenvalues --    6.93998   7.01181   7.15394   7.47648   7.55309
 Alpha virt. eigenvalues --    8.34416  15.12378
     Molecular Orbital Coefficients:
                           1         2         3         4         5
                        (A1)--O   (A1)--O   (B2)--O   (A1)--O   (B1)--O
     Eigenvalues --   -19.25693  -1.11504  -0.63246  -0.47435  -0.40593
   1 1   O  1S          0.97402  -0.20480   0.00000  -0.07088   0.00000
   2        2S         -0.00750   0.47215   0.00000   0.18125   0.00000
   3        3S          0.04988   0.13966   0.00000   0.05442   0.00000
   4        4S          0.00732   0.28755   0.00000   0.34919   0.00000
   5        5S          0.00195   0.04120   0.00000   0.09042   0.00000
   6        6PX         0.00000   0.00000   0.00000   0.00000   0.36290
   7        6PY         0.00000   0.00000   0.29708   0.00000   0.00000
   8        6PZ        -0.00150  -0.05988   0.00000   0.32400   0.00000
   9        7PX         0.00000   0.00000   0.00000   0.00000   0.43471
  10        7PY         0.00000   0.00000   0.32174   0.00000   0.00000
  11        7PZ        -0.00096  -0.07386   0.00000   0.37069   0.00000
  12        8PX         0.00000   0.00000   0.00000   0.00000   0.32117
  13        8PY         0.00000   0.00000   0.12241   0.00000   0.00000
  14        8PZ        -0.00043  -0.02244   0.00000   0.20702   0.00000
  15        9PX         0.00000   0.00000   0.00000   0.00000   0.04746
  16        9PY         0.00000   0.00000   0.00990   0.00000   0.00000
  17        9PZ        -0.00014  -0.00318   0.00000   0.02284   0.00000
  18       10D 0       -0.00001   0.00077   0.00000  -0.00577   0.00000
  19       10D+1        0.00000   0.00000   0.00000   0.00000  -0.00591
  20       10D-1        0.00000   0.00000  -0.01030   0.00000   0.00000
  21       10D+2       -0.00050  -0.00384   0.00000   0.00229   0.00000
  22       10D-2        0.00000   0.00000   0.00000   0.00000   0.00000
  23       11D 0        0.00011   0.00315   0.00000  -0.01518   0.00000
  24       11D+1        0.00000   0.00000   0.00000   0.00000  -0.01362
  25       11D-1        0.00000   0.00000  -0.01272   0.00000   0.00000
  26       11D+2        0.00011  -0.00923   0.00000  -0.00440   0.00000
  27       11D-2        0.00000   0.00000   0.00000   0.00000   0.00000
  28       12D 0        0.00007   0.00150   0.00000  -0.00581   0.00000
  29       12D+1        0.00000   0.00000   0.00000   0.00000  -0.00741
  30       12D-1        0.00000   0.00000   0.00986   0.00000   0.00000
  31       12D+2        0.00051   0.00329   0.00000  -0.01298   0.00000
  32       12D-2        0.00000   0.00000   0.00000   0.00000   0.00000
  33       13F 0        0.00020   0.00045   0.00000   0.00067   0.00000
  34       13F+1        0.00000   0.00000   0.00000   0.00000   0.00111
  35       13F-1        0.00000   0.00000  -0.00118   0.00000   0.00000
  36       13F+2        0.00039   0.00156   0.00000  -0.00215   0.00000
  37       13F-2        0.00000   0.00000   0.00000   0.00000   0.00000
  38       13F+3        0.00000   0.00000   0.00000   0.00000  -0.00363
  39       13F-3        0.00000   0.00000  -0.00211   0.00000   0.00000
  40       14F 0       -0.00055  -0.00072   0.00000   0.00133   0.00000
  41       14F+1        0.00000   0.00000   0.00000   0.00000   0.00064
  42       14F-1        0.00000   0.00000   0.00076   0.00000   0.00000
  43       14F+2       -0.00091   0.00016   0.00000   0.00118   0.00000
  44       14F-2        0.00000   0.00000   0.00000   0.00000   0.00000
  45       14F+3        0.00000   0.00000   0.00000   0.00000  -0.00097
  46       14F-3        0.00000   0.00000  -0.00145   0.00000   0.00000
  47 2   H  1S          0.00085   0.09361  -0.14771  -0.08283   0.00000
  48        2S         -0.00204   0.07936  -0.24495  -0.18339   0.00000
  49        3S         -0.00214  -0.01585  -0.03679  -0.06807   0.00000
  50        4S         -0.00006  -0.00164   0.00485  -0.00229   0.00000
  51        5PX         0.00000   0.00000   0.00000   0.00000   0.01137
  52        5PY        -0.00024   0.01144  -0.01051  -0.00920   0.00000
  53        5PZ        -0.00008   0.00711  -0.01242   0.00293   0.00000
  54        6PX         0.00000   0.00000   0.00000   0.00000   0.03233
  55        6PY        -0.00172   0.00791  -0.02266  -0.03397   0.00000
  56        6PZ        -0.00108   0.00493  -0.02794   0.00364   0.00000
  57        7PX         0.00000   0.00000   0.00000   0.00000   0.02179
  58        7PY        -0.00072  -0.00628   0.01022  -0.00424   0.00000
  59        7PZ        -0.00059  -0.00446   0.00025   0.01199   0.00000
  60        8D 0        0.00001  -0.00012  -0.00125   0.00246   0.00000
  61        8D+1        0.00000   0.00000   0.00000   0.00000   0.00281
  62        8D-1       -0.00089   0.00289  -0.00745  -0.00205   0.00000
  63        8D+2        0.00070  -0.00207   0.00461   0.00378   0.00000
  64        8D-2        0.00000   0.00000   0.00000   0.00000   0.00389
  65        9D 0       -0.00005   0.00025  -0.00147   0.00181   0.00000
  66        9D+1        0.00000   0.00000   0.00000   0.00000   0.00372
  67        9D-1       -0.00031  -0.00154  -0.00286   0.00363   0.00000
  68        9D+2        0.00015   0.00121  -0.00301   0.00192   0.00000
  69        9D-2        0.00000   0.00000   0.00000   0.00000   0.00677
  70 3   H  1S          0.00085   0.09361   0.14771  -0.08283   0.00000
  71        2S         -0.00204   0.07936   0.24495  -0.18339   0.00000
  72        3S         -0.00214  -0.01585   0.03679  -0.06807   0.00000
  73        4S         -0.00006  -0.00164  -0.00485  -0.00229   0.00000
  74        5PX         0.00000   0.00000   0.00000   0.00000   0.01137
  75        5PY         0.00024  -0.01144  -0.01051   0.00920   0.00000
  76        5PZ        -0.00008   0.00711   0.01242   0.00293   0.00000
  77        6PX         0.00000   0.00000   0.00000   0.00000   0.03233
  78        6PY         0.00172  -0.00791  -0.02266   0.03397   0.00000
  79        6PZ        -0.00108   0.00493   0.02794   0.00364   0.00000
  80        7PX         0.00000   0.00000   0.00000   0.00000   0.02179
  81        7PY         0.00072   0.00628   0.01022   0.00424   0.00000
  82        7PZ        -0.00059  -0.00446  -0.00025   0.01199   0.00000
  83        8D 0        0.00001  -0.00012   0.00125   0.00246   0.00000
  84        8D+1        0.00000   0.00000   0.00000   0.00000   0.00281
  85        8D-1        0.00089  -0.00289  -0.00745   0.00205   0.00000
  86        8D+2        0.00070  -0.00207  -0.00461   0.00378   0.00000
  87        8D-2        0.00000   0.00000   0.00000   0.00000  -0.00389
  88        9D 0       -0.00005   0.00025   0.00147   0.00181   0.00000
  89        9D+1        0.00000   0.00000   0.00000   0.00000   0.00372
  90        9D-1        0.00031   0.00154  -0.00286  -0.00363   0.00000
  91        9D+2        0.00015   0.00121   0.00301   0.00192   0.00000
  92        9D-2        0.00000   0.00000   0.00000   0.00000  -0.00677
                           6         7         8         9        10
                        (A1)--V   (B2)--V   (A1)--V   (B1)--V   (A1)--V
     Eigenvalues --     0.02962   0.05051   0.12769   0.15767   0.16373
   1 1   O  1S         -0.03357   0.00000   0.03645   0.00000   0.05433
   2        2S          0.08703   0.00000  -0.11583   0.00000  -0.14482
   3        3S          0.02429   0.00000  -0.04383   0.00000  -0.06004
   4        4S          0.78333   0.00000   1.78826   0.00000   0.92875
   5        5S          2.17848   0.00000   6.90525   0.00000   1.50813
   6        6PX         0.00000   0.00000   0.00000  -0.10734   0.00000
   7        6PY         0.00000   0.04109   0.00000   0.00000   0.00000
   8        6PZ        -0.04761   0.00000   0.12018   0.00000  -0.00504
   9        7PX         0.00000   0.00000   0.00000  -0.10887   0.00000
  10        7PY         0.00000   0.09186   0.00000   0.00000   0.00000
  11        7PZ        -0.08838   0.00000   0.05777   0.00000  -0.05788
  12        8PX         0.00000   0.00000   0.00000   0.06067   0.00000
  13        8PY         0.00000   0.59434   0.00000   0.00000   0.00000
  14        8PZ        -0.32689   0.00000  -0.50370   0.00000  -0.31485
  15        9PX         0.00000   0.00000   0.00000   1.77944   0.00000
  16        9PY         0.00000   1.19392   0.00000   0.00000   0.00000
  17        9PZ        -0.18713   0.00000  -1.61087   0.00000   1.45928
  18       10D 0        0.00042   0.00000  -0.00116   0.00000  -0.00223
  19       10D+1        0.00000   0.00000   0.00000  -0.00157   0.00000
  20       10D-1        0.00000   0.00027   0.00000   0.00000   0.00000
  21       10D+2        0.00131   0.00000  -0.00083   0.00000   0.00164
  22       10D-2        0.00000   0.00000   0.00000   0.00000   0.00000
  23       11D 0        0.00488   0.00000  -0.00918   0.00000   0.01269
  24       11D+1        0.00000   0.00000   0.00000   0.02742   0.00000
  25       11D-1        0.00000  -0.03076   0.00000   0.00000   0.00000
  26       11D+2       -0.02091   0.00000  -0.04280   0.00000  -0.06482
  27       11D-2        0.00000   0.00000   0.00000   0.00000   0.00000
  28       12D 0       -0.00887   0.00000   0.06216   0.00000  -0.13321
  29       12D+1        0.00000   0.00000   0.00000  -0.19332   0.00000
  30       12D-1        0.00000  -0.13023   0.00000   0.00000   0.00000
  31       12D+2       -0.06165   0.00000  -0.07350   0.00000  -0.06418
  32       12D-2        0.00000   0.00000   0.00000   0.00000   0.00000
  33       13F 0        0.00037   0.00000   0.00284   0.00000   0.00132
  34       13F+1        0.00000   0.00000   0.00000  -0.00200   0.00000
  35       13F-1        0.00000   0.00075   0.00000   0.00000   0.00000
  36       13F+2        0.00082   0.00000   0.00393   0.00000   0.00371
  37       13F-2        0.00000   0.00000   0.00000   0.00000   0.00000
  38       13F+3        0.00000   0.00000   0.00000   0.00382   0.00000
  39       13F-3        0.00000  -0.00029   0.00000   0.00000   0.00000
  40       14F 0        0.00557   0.00000  -0.00122   0.00000   0.01754
  41       14F+1        0.00000   0.00000   0.00000   0.00752   0.00000
  42       14F-1        0.00000   0.00235   0.00000   0.00000   0.00000
  43       14F+2        0.01175   0.00000   0.00217   0.00000   0.02148
  44       14F-2        0.00000   0.00000   0.00000   0.00000   0.00000
  45       14F+3        0.00000   0.00000   0.00000  -0.01016   0.00000
  46       14F-3        0.00000  -0.01070   0.00000   0.00000   0.00000
  47 2   H  1S         -0.01023  -0.00438   0.02365   0.00000   0.04321
  48        2S         -0.25685   0.29067  -0.31215   0.00000  -0.31221
  49        3S         -0.92372   1.43435  -3.07344   0.00000  -0.02260
  50        4S         -0.79835   3.32181  -0.89953   0.00000  -0.45669
  51        5PX         0.00000   0.00000   0.00000   0.00037   0.00000
  52        5PY         0.00428  -0.00024  -0.00670   0.00000  -0.01425
  53        5PZ         0.00117  -0.00175  -0.00371   0.00000  -0.00731
  54        6PX         0.00000   0.00000   0.00000  -0.03656   0.00000
  55        6PY        -0.06753   0.07214  -0.26707   0.00000  -0.12559
  56        6PZ        -0.04755   0.06940  -0.15975   0.00000  -0.11628
  57        7PX         0.00000   0.00000   0.00000  -0.53855   0.00000
  58        7PY        -0.19660   0.27900  -0.90576   0.00000  -0.47194
  59        7PZ        -0.16589   0.32072  -0.54131   0.00000  -0.62629
  60        8D 0       -0.00072  -0.00042  -0.00066   0.00000  -0.00077
  61        8D+1        0.00000   0.00000   0.00000   0.00173   0.00000
  62        8D-1       -0.00383   0.00475  -0.01295   0.00000  -0.01012
  63        8D+2        0.00201  -0.00432   0.01087   0.00000   0.00239
  64        8D-2        0.00000   0.00000   0.00000   0.00137   0.00000
  65        9D 0       -0.00178   0.01472   0.02334   0.00000  -0.01693
  66        9D+1        0.00000   0.00000   0.00000  -0.03692   0.00000
  67        9D-1       -0.02121   0.03473  -0.09897   0.00000  -0.07760
  68        9D+2        0.01655  -0.00019   0.07817   0.00000   0.04485
  69        9D-2        0.00000   0.00000   0.00000  -0.07116   0.00000
  70 3   H  1S         -0.01023   0.00438   0.02365   0.00000   0.04321
  71        2S         -0.25685  -0.29067  -0.31215   0.00000  -0.31221
  72        3S         -0.92372  -1.43435  -3.07344   0.00000  -0.02260
  73        4S         -0.79835  -3.32181  -0.89953   0.00000  -0.45669
  74        5PX         0.00000   0.00000   0.00000   0.00037   0.00000
  75        5PY        -0.00428  -0.00024   0.00670   0.00000   0.01425
  76        5PZ         0.00117   0.00175  -0.00371   0.00000  -0.00731
  77        6PX         0.00000   0.00000   0.00000  -0.03656   0.00000
  78        6PY         0.06753   0.07214   0.26707   0.00000   0.12559
  79        6PZ        -0.04755  -0.06940  -0.15975   0.00000  -0.11628
  80        7PX         0.00000   0.00000   0.00000  -0.53855   0.00000
  81        7PY         0.19660   0.27900   0.90576   0.00000   0.47194
  82        7PZ        -0.16589  -0.32072  -0.54131   0.00000  -0.62629
  83        8D 0       -0.00072   0.00042  -0.00066   0.00000  -0.00077
  84        8D+1        0.00000   0.00000   0.00000   0.00173   0.00000
  85        8D-1        0.00383   0.00475   0.01295   0.00000   0.01012
  86        8D+2        0.00201   0.00432   0.01087   0.00000   0.00239
  87        8D-2        0.00000   0.00000   0.00000  -0.00137   0.00000
  88        9D 0       -0.00178  -0.01472   0.02334   0.00000  -0.01693
  89        9D+1        0.00000   0.00000   0.00000  -0.03692   0.00000
  90        9D-1        0.02121   0.03473   0.09897   0.00000   0.07760
  91        9D+2        0.01655   0.00019   0.07817   0.00000   0.04485
  92        9D-2        0.00000   0.00000   0.00000   0.07116   0.00000
                          11        12        13        14        15
                        (B2)--V   (B2)--V   (A1)--V   (A2)--V   (B1)--V
     Eigenvalues --     0.17371   0.21823   0.23899   0.26024   0.29581
   1 1   O  1S          0.00000   0.00000  -0.00472   0.00000   0.00000
   2        2S          0.00000   0.00000  -0.02339   0.00000   0.00000
   3        3S          0.00000   0.00000  -0.01053   0.00000   0.00000
   4        4S          0.00000   0.00000   0.59823   0.00000   0.00000
   5        5S          0.00000   0.00000   3.72152   0.00000   0.00000
   6        6PX         0.00000   0.00000   0.00000   0.00000   0.10075
   7        6PY        -0.14450   0.07202   0.00000   0.00000   0.00000
   8        6PZ         0.00000   0.00000  -0.00959   0.00000   0.00000
   9        7PX         0.00000   0.00000   0.00000   0.00000   0.08032
  10        7PY        -0.06603   0.08207   0.00000   0.00000   0.00000
  11        7PZ         0.00000   0.00000  -0.03525   0.00000   0.00000
  12        8PX         0.00000   0.00000   0.00000   0.00000   1.83234
  13        8PY         1.33411   1.33371   0.00000   0.00000   0.00000
  14        8PZ         0.00000   0.00000   0.44602   0.00000   0.00000
  15        9PX         0.00000   0.00000   0.00000   0.00000   1.99180
  16        9PY         3.08609   2.47823   0.00000   0.00000   0.00000
  17        9PZ         0.00000   0.00000   0.43878   0.00000   0.00000
  18       10D 0        0.00000   0.00000   0.00600   0.00000   0.00000
  19       10D+1        0.00000   0.00000   0.00000   0.00000   0.00653
  20       10D-1        0.00177   0.00670   0.00000   0.00000   0.00000
  21       10D+2        0.00000   0.00000   0.00567   0.00000   0.00000
  22       10D-2        0.00000   0.00000   0.00000  -0.00643   0.00000
  23       11D 0        0.00000   0.00000  -0.02155   0.00000   0.00000
  24       11D+1        0.00000   0.00000   0.00000   0.00000  -0.02786
  25       11D-1       -0.07810  -0.01417   0.00000   0.00000   0.00000
  26       11D+2        0.00000   0.00000  -0.02142   0.00000   0.00000
  27       11D-2        0.00000   0.00000   0.00000   0.01373   0.00000
  28       12D 0        0.00000   0.00000  -0.53305   0.00000   0.00000
  29       12D+1        0.00000   0.00000   0.00000   0.00000  -0.48876
  30       12D-1       -0.30984  -0.75842   0.00000   0.00000   0.00000
  31       12D+2        0.00000   0.00000  -0.50519   0.00000   0.00000
  32       12D-2        0.00000   0.00000   0.00000   0.65771   0.00000
  33       13F 0        0.00000   0.00000  -0.00392   0.00000   0.00000
  34       13F+1        0.00000   0.00000   0.00000   0.00000  -0.00504
  35       13F-1        0.00368  -0.00637   0.00000   0.00000   0.00000
  36       13F+2        0.00000   0.00000  -0.00030   0.00000   0.00000
  37       13F-2        0.00000   0.00000   0.00000   0.01089   0.00000
  38       13F+3        0.00000   0.00000   0.00000   0.00000   0.00788
  39       13F-3        0.00068   0.00329   0.00000   0.00000   0.00000
  40       14F 0        0.00000   0.00000   0.04881   0.00000   0.00000
  41       14F+1        0.00000   0.00000   0.00000   0.00000   0.03424
  42       14F-1       -0.00114   0.05471   0.00000   0.00000   0.00000
  43       14F+2        0.00000   0.00000   0.02455   0.00000   0.00000
  44       14F-2        0.00000   0.00000   0.00000  -0.09064   0.00000
  45       14F+3        0.00000   0.00000   0.00000   0.00000  -0.08595
  46       14F-3       -0.02527  -0.03154   0.00000   0.00000   0.00000
  47 2   H  1S         -0.01969   0.05432  -0.04327   0.00000   0.00000
  48        2S          0.66909   0.99793  -0.39532   0.00000   0.00000
  49        3S          4.07317   1.67203  -1.87857   0.00000   0.00000
  50        4S          3.08767   0.84660  -0.18714   0.00000   0.00000
  51        5PX         0.00000   0.00000   0.00000  -0.00117   0.00609
  52        5PY         0.01197   0.00184  -0.00499   0.00000   0.00000
  53        5PZ         0.00768  -0.00800   0.00475   0.00000   0.00000
  54        6PX         0.00000   0.00000   0.00000   0.29129  -0.33176
  55        6PY         0.23644   0.10024   0.08849   0.00000   0.00000
  56        6PZ         0.23168   0.01823  -0.29958   0.00000   0.00000
  57        7PX         0.00000   0.00000   0.00000   1.69632  -1.88890
  58        7PY         1.11628  -0.68136   0.66889   0.00000   0.00000
  59        7PZ         1.12122  -0.43069  -1.05437   0.00000   0.00000
  60        8D 0        0.00144  -0.00205  -0.00130   0.00000   0.00000
  61        8D+1        0.00000   0.00000   0.00000   0.00197  -0.00534
  62        8D-1        0.01447   0.00368  -0.01352   0.00000   0.00000
  63        8D+2       -0.01084  -0.00742  -0.00117   0.00000   0.00000
  64        8D-2        0.00000   0.00000   0.00000   0.00513  -0.00582
  65        9D 0        0.04886  -0.04259  -0.21476   0.00000   0.00000
  66        9D+1        0.00000   0.00000   0.00000   0.20445  -0.15727
  67        9D-1        0.10577  -0.10707  -0.04983   0.00000   0.00000
  68        9D+2       -0.00989   0.13759  -0.11161   0.00000   0.00000
  69        9D-2        0.00000   0.00000   0.00000   0.23844  -0.31198
  70 3   H  1S          0.01969  -0.05432  -0.04327   0.00000   0.00000
  71        2S         -0.66909  -0.99793  -0.39532   0.00000   0.00000
  72        3S         -4.07317  -1.67203  -1.87857   0.00000   0.00000
  73        4S         -3.08767  -0.84660  -0.18714   0.00000   0.00000
  74        5PX         0.00000   0.00000   0.00000   0.00117   0.00609
  75        5PY         0.01197   0.00184   0.00499   0.00000   0.00000
  76        5PZ        -0.00768   0.00800   0.00475   0.00000   0.00000
  77        6PX         0.00000   0.00000   0.00000  -0.29129  -0.33176
  78        6PY         0.23644   0.10024  -0.08849   0.00000   0.00000
  79        6PZ        -0.23168  -0.01823  -0.29958   0.00000   0.00000
  80        7PX         0.00000   0.00000   0.00000  -1.69632  -1.88890
  81        7PY         1.11628  -0.68136  -0.66889   0.00000   0.00000
  82        7PZ        -1.12122   0.43069  -1.05437   0.00000   0.00000
  83        8D 0       -0.00144   0.00205  -0.00130   0.00000   0.00000
  84        8D+1        0.00000   0.00000   0.00000  -0.00197  -0.00534
  85        8D-1        0.01447   0.00368   0.01352   0.00000   0.00000
  86        8D+2        0.01084   0.00742  -0.00117   0.00000   0.00000
  87        8D-2        0.00000   0.00000   0.00000   0.00513   0.00582
  88        9D 0       -0.04886   0.04259  -0.21476   0.00000   0.00000
  89        9D+1        0.00000   0.00000   0.00000  -0.20445  -0.15727
  90        9D-1        0.10577  -0.10707   0.04983   0.00000   0.00000
  91        9D+2        0.00989  -0.13759  -0.11161   0.00000   0.00000
  92        9D-2        0.00000   0.00000   0.00000   0.23844   0.31198
                          16        17        18        19        20
                        (A1)--V   (B2)--V   (A1)--V   (B2)--V   (B2)--V
     Eigenvalues --     0.29992   0.36664   0.39249   0.41611   0.55167
   1 1   O  1S          0.00590   0.00000  -0.07214   0.00000   0.00000
   2        2S         -0.05593   0.00000   0.21579   0.00000   0.00000
   3        3S         -0.03930   0.00000   0.07020   0.00000   0.00000
   4        4S          1.85208   0.00000   4.68897   0.00000   0.00000
   5        5S          7.58861   0.00000   9.15902   0.00000   0.00000
   6        6PX         0.00000   0.00000   0.00000   0.00000   0.00000
   7        6PY         0.00000  -0.02418   0.00000   0.20448  -0.04204
   8        6PZ        -0.11549   0.00000  -0.10893   0.00000   0.00000
   9        7PX         0.00000   0.00000   0.00000   0.00000   0.00000
  10        7PY         0.00000   0.00581   0.00000   0.50262   0.10951
  11        7PZ        -0.22992   0.00000  -0.32105   0.00000   0.00000
  12        8PX         0.00000   0.00000   0.00000   0.00000   0.00000
  13        8PY         0.00000  -1.24355   0.00000   2.28141   4.19069
  14        8PZ        -2.38794   0.00000  -0.50147   0.00000   0.00000
  15        9PX         0.00000   0.00000   0.00000   0.00000   0.00000
  16        9PY         0.00000  -3.40974   0.00000   2.35987   2.84958
  17        9PZ        -2.48246   0.00000  -0.44761   0.00000   0.00000
  18       10D 0       -0.00482   0.00000   0.00314   0.00000   0.00000
  19       10D+1        0.00000   0.00000   0.00000   0.00000   0.00000
  20       10D-1        0.00000   0.00280   0.00000   0.00884  -0.01122
  21       10D+2        0.00558   0.00000   0.00599   0.00000   0.00000
  22       10D-2        0.00000   0.00000   0.00000   0.00000   0.00000
  23       11D 0        0.03626   0.00000   0.00820   0.00000   0.00000
  24       11D+1        0.00000   0.00000   0.00000   0.00000   0.00000
  25       11D-1        0.00000  -0.01217   0.00000  -0.12595  -0.26249
  26       11D+2       -0.06566   0.00000  -0.05368   0.00000   0.00000
  27       11D-2        0.00000   0.00000   0.00000   0.00000   0.00000
  28       12D 0        0.40884   0.00000  -0.04463   0.00000   0.00000
  29       12D+1        0.00000   0.00000   0.00000   0.00000   0.00000
  30       12D-1        0.00000   0.10639   0.00000   0.28223  -2.27434
  31       12D+2       -0.23289   0.00000   0.32941   0.00000   0.00000
  32       12D-2        0.00000   0.00000   0.00000   0.00000   0.00000
  33       13F 0        0.00615   0.00000   0.00335   0.00000   0.00000
  34       13F+1        0.00000   0.00000   0.00000   0.00000   0.00000
  35       13F-1        0.00000  -0.00836   0.00000   0.00984  -0.00575
  36       13F+2        0.00029   0.00000   0.01232   0.00000   0.00000
  37       13F-2        0.00000   0.00000   0.00000   0.00000   0.00000
  38       13F+3        0.00000   0.00000   0.00000   0.00000   0.00000
  39       13F-3        0.00000  -0.00493   0.00000  -0.00733   0.00283
  40       14F 0       -0.01162   0.00000  -0.01318   0.00000   0.00000
  41       14F+1        0.00000   0.00000   0.00000   0.00000   0.00000
  42       14F-1        0.00000   0.06536   0.00000  -0.06442   0.14525
  43       14F+2        0.07106   0.00000  -0.05722   0.00000   0.00000
  44       14F-2        0.00000   0.00000   0.00000   0.00000   0.00000
  45       14F+3        0.00000   0.00000   0.00000   0.00000   0.00000
  46       14F-3        0.00000   0.04160   0.00000  -0.01571  -0.08745
  47 2   H  1S         -0.02669   0.01516  -0.05780   0.05842  -0.12420
  48        2S         -1.28857  -0.40399  -0.26399   0.79852   2.40189
  49        3S         -3.98875   3.08124  -5.40121   8.90381   8.55512
  50        4S         -0.34667  -0.76050  -0.69421   1.89013   1.21050
  51        5PX         0.00000   0.00000   0.00000   0.00000   0.00000
  52        5PY         0.00559  -0.00189   0.01726  -0.00547   0.01305
  53        5PZ        -0.00963   0.00085   0.00960  -0.00721   0.00610
  54        6PX         0.00000   0.00000   0.00000   0.00000   0.00000
  55        6PY        -0.49738   0.18545  -0.27437   0.31582   0.62329
  56        6PZ        -0.04583  -0.17685  -0.23118   0.36343   0.41027
  57        7PX         0.00000   0.00000   0.00000   0.00000   0.00000
  58        7PY        -0.40748   4.08718  -2.19553   3.13354   1.95857
  59        7PZ         0.85488  -1.75805  -1.74717   2.15388   0.43425
  60        8D 0        0.00243  -0.00482  -0.00616   0.00271  -0.00382
  61        8D+1        0.00000   0.00000   0.00000   0.00000   0.00000
  62        8D-1       -0.01883   0.01026  -0.01369   0.02817   0.02744
  63        8D+2        0.02408   0.00504   0.00615  -0.01744  -0.02746
  64        8D-2        0.00000   0.00000   0.00000   0.00000   0.00000
  65        9D 0        0.10870  -0.30719   0.03652   0.10221  -0.16955
  66        9D+1        0.00000   0.00000   0.00000   0.00000   0.00000
  67        9D-1        0.12419  -0.14241  -0.36440   0.31247  -0.17927
  68        9D+2        0.06073  -0.39119   0.23458  -0.17601   0.11877
  69        9D-2        0.00000   0.00000   0.00000   0.00000   0.00000
  70 3   H  1S         -0.02669  -0.01516  -0.05780  -0.05842   0.12420
  71        2S         -1.28857   0.40399  -0.26399  -0.79852  -2.40189
  72        3S         -3.98875  -3.08124  -5.40121  -8.90381  -8.55512
  73        4S         -0.34667   0.76050  -0.69421  -1.89013  -1.21050
  74        5PX         0.00000   0.00000   0.00000   0.00000   0.00000
  75        5PY        -0.00559  -0.00189  -0.01726  -0.00547   0.01305
  76        5PZ        -0.00963  -0.00085   0.00960   0.00721  -0.00610
  77        6PX         0.00000   0.00000   0.00000   0.00000   0.00000
  78        6PY         0.49738   0.18545   0.27437   0.31582   0.62329
  79        6PZ        -0.04583   0.17685  -0.23118  -0.36343  -0.41027
  80        7PX         0.00000   0.00000   0.00000   0.00000   0.00000
  81        7PY         0.40748   4.08718   2.19553   3.13354   1.95857
  82        7PZ         0.85488   1.75805  -1.74717  -2.15388  -0.43425
  83        8D 0        0.00243   0.00482  -0.00616  -0.00271   0.00382
  84        8D+1        0.00000   0.00000   0.00000   0.00000   0.00000
  85        8D-1        0.01883   0.01026   0.01369   0.02817   0.02744
  86        8D+2        0.02408  -0.00504   0.00615   0.01744   0.02746
  87        8D-2        0.00000   0.00000   0.00000   0.00000   0.00000
  88        9D 0        0.10870   0.30719   0.03652  -0.10221   0.16955
  89        9D+1        0.00000   0.00000   0.00000   0.00000   0.00000
  90        9D-1       -0.12419  -0.14241   0.36440   0.31247  -0.17927
  91        9D+2        0.06073   0.39119   0.23458   0.17601  -0.11877
  92        9D-2        0.00000   0.00000   0.00000   0.00000   0.00000
                          21        22        23        24        25
                        (A1)--V   (A1)--V   (A2)--V   (B1)--V   (A1)--V
     Eigenvalues --     0.58947   0.65419   0.66678   0.67184   0.77692
   1 1   O  1S         -0.00130   0.00993   0.00000   0.00000   0.03233
   2        2S         -0.08696  -0.07718   0.00000   0.00000  -0.07869
   3        3S         -0.02491  -0.02579   0.00000   0.00000  -0.00126
   4        4S          2.00537   1.21702   0.00000   0.00000  -1.71153
   5        5S          6.94301   3.06789   0.00000   0.00000   2.09470
   6        6PX         0.00000   0.00000   0.00000   0.04035   0.00000
   7        6PY         0.00000   0.00000   0.00000   0.00000   0.00000
   8        6PZ        -0.01057   0.00828   0.00000   0.00000   0.05729
   9        7PX         0.00000   0.00000   0.00000   0.10480   0.00000
  10        7PY         0.00000   0.00000   0.00000   0.00000   0.00000
  11        7PZ        -0.11224  -0.08836   0.00000   0.00000   0.14765
  12        8PX         0.00000   0.00000   0.00000   1.43792   0.00000
  13        8PY         0.00000   0.00000   0.00000   0.00000   0.00000
  14        8PZ         0.76902  -2.01937   0.00000   0.00000   0.31255
  15        9PX         0.00000   0.00000   0.00000   1.43975   0.00000
  16        9PY         0.00000   0.00000   0.00000   0.00000   0.00000
  17        9PZ        -0.76133  -1.75229   0.00000   0.00000  -0.73421
  18       10D 0        0.00194   0.02163   0.00000   0.00000  -0.00389
  19       10D+1        0.00000   0.00000   0.00000  -0.02999   0.00000
  20       10D-1        0.00000   0.00000   0.00000   0.00000   0.00000
  21       10D+2       -0.02099  -0.01615   0.00000   0.00000  -0.00389
  22       10D-2        0.00000   0.00000   0.01679   0.00000   0.00000
  23       11D 0       -0.10126   0.03866   0.00000   0.00000   0.09428
  24       11D+1        0.00000   0.00000   0.00000   0.01147   0.00000
  25       11D-1        0.00000   0.00000   0.00000   0.00000   0.00000
  26       11D+2       -0.09788   0.03133   0.00000   0.00000   0.09191
  27       11D-2        0.00000   0.00000   0.11280   0.00000   0.00000
  28       12D 0       -0.91321   1.50616   0.00000   0.00000   0.92215
  29       12D+1        0.00000   0.00000   0.00000  -1.30889   0.00000
  30       12D-1        0.00000   0.00000   0.00000   0.00000   0.00000
  31       12D+2       -1.22855  -0.06233   0.00000   0.00000   1.30397
  32       12D-2        0.00000   0.00000   2.00823   0.00000   0.00000
  33       13F 0       -0.00223   0.00061   0.00000   0.00000   0.02208
  34       13F+1        0.00000   0.00000   0.00000   0.00228   0.00000
  35       13F-1        0.00000   0.00000   0.00000   0.00000   0.00000
  36       13F+2        0.00580  -0.00464   0.00000   0.00000   0.01660
  37       13F-2        0.00000   0.00000   0.01989   0.00000   0.00000
  38       13F+3        0.00000   0.00000   0.00000   0.01699   0.00000
  39       13F-3        0.00000   0.00000   0.00000   0.00000   0.00000
  40       14F 0        0.07556  -0.04118   0.00000   0.00000  -0.20348
  41       14F+1        0.00000   0.00000   0.00000   0.01446   0.00000
  42       14F-1        0.00000   0.00000   0.00000   0.00000   0.00000
  43       14F+2        0.02925   0.03823   0.00000   0.00000  -0.16907
  44       14F-2        0.00000   0.00000  -0.22266   0.00000   0.00000
  45       14F+3        0.00000   0.00000   0.00000  -0.12366   0.00000
  46       14F-3        0.00000   0.00000   0.00000   0.00000   0.00000
  47 2   H  1S          0.09792   0.04547   0.00000   0.00000   0.09819
  48        2S         -0.05985  -0.53117   0.00000   0.00000   2.33382
  49        3S         -4.45293  -1.95142   0.00000   0.00000  -1.81178
  50        4S         -0.22829  -0.05954   0.00000   0.00000  -0.02882
  51        5PX         0.00000   0.00000  -0.03749   0.02640   0.00000
  52        5PY        -0.01614   0.02836   0.00000   0.00000   0.02922
  53        5PZ         0.03343  -0.02457   0.00000   0.00000   0.00539
  54        6PX         0.00000   0.00000   0.55074  -0.33249   0.00000
  55        6PY        -0.08789  -0.44791   0.00000   0.00000  -0.17010
  56        6PZ        -0.52766   0.16991   0.00000   0.00000   0.36293
  57        7PX         0.00000   0.00000   1.63307  -1.30535   0.00000
  58        7PY         0.02998  -0.53660   0.00000   0.00000  -0.61285
  59        7PZ        -1.11574   0.98678   0.00000   0.00000   0.14835
  60        8D 0       -0.00477  -0.00399   0.00000   0.00000   0.02233
  61        8D+1        0.00000   0.00000   0.00805   0.00121   0.00000
  62        8D-1       -0.02436   0.00185   0.00000   0.00000   0.00906
  63        8D+2        0.00033   0.01683   0.00000   0.00000   0.01936
  64        8D-2        0.00000   0.00000   0.01845  -0.00505   0.00000
  65        9D 0       -0.39494   0.48001   0.00000   0.00000   0.04656
  66        9D+1        0.00000   0.00000   0.43585  -0.38573   0.00000
  67        9D-1       -0.12664   0.03792   0.00000   0.00000   0.33104
  68        9D+2       -0.21840   0.11808   0.00000   0.00000   0.20140
  69        9D-2        0.00000   0.00000   0.61250  -0.20722   0.00000
  70 3   H  1S          0.09792   0.04547   0.00000   0.00000   0.09819
  71        2S         -0.05985  -0.53117   0.00000   0.00000   2.33382
  72        3S         -4.45293  -1.95142   0.00000   0.00000  -1.81178
  73        4S         -0.22829  -0.05954   0.00000   0.00000  -0.02882
  74        5PX         0.00000   0.00000   0.03749   0.02640   0.00000
  75        5PY         0.01614  -0.02836   0.00000   0.00000  -0.02922
  76        5PZ         0.03343  -0.02457   0.00000   0.00000   0.00539
  77        6PX         0.00000   0.00000  -0.55074  -0.33249   0.00000
  78        6PY         0.08789   0.44791   0.00000   0.00000   0.17010
  79        6PZ        -0.52766   0.16991   0.00000   0.00000   0.36293
  80        7PX         0.00000   0.00000  -1.63307  -1.30535   0.00000
  81        7PY        -0.02998   0.53660   0.00000   0.00000   0.61285
  82        7PZ        -1.11574   0.98678   0.00000   0.00000   0.14835
  83        8D 0       -0.00477  -0.00399   0.00000   0.00000   0.02233
  84        8D+1        0.00000   0.00000  -0.00805   0.00121   0.00000
  85        8D-1        0.02436  -0.00185   0.00000   0.00000  -0.00906
  86        8D+2        0.00033   0.01683   0.00000   0.00000   0.01936
  87        8D-2        0.00000   0.00000   0.01845   0.00505   0.00000
  88        9D 0       -0.39494   0.48001   0.00000   0.00000   0.04656
  89        9D+1        0.00000   0.00000  -0.43585  -0.38573   0.00000
  90        9D-1        0.12664  -0.03792   0.00000   0.00000  -0.33104
  91        9D+2       -0.21840   0.11808   0.00000   0.00000   0.20140
  92        9D-2        0.00000   0.00000   0.61250   0.20722   0.00000
                          26        27        28        29        30
                        (B1)--V   (A1)--V   (B1)--V   (B2)--V   (A2)--V
     Eigenvalues --     0.79766   0.81117   0.85732   0.85917   0.88064
   1 1   O  1S          0.00000  -0.05019   0.00000   0.00000   0.00000
   2        2S          0.00000   0.04900   0.00000   0.00000   0.00000
   3        3S          0.00000  -0.06273   0.00000   0.00000   0.00000
   4        4S          0.00000   9.16954   0.00000   0.00000   0.00000
   5        5S          0.00000   9.13467   0.00000   0.00000   0.00000
   6        6PX        -0.18893   0.00000  -0.16426   0.00000   0.00000
   7        6PY         0.00000   0.00000   0.00000  -0.12926   0.00000
   8        6PZ         0.00000   0.26859   0.00000   0.00000   0.00000
   9        7PX        -0.38252   0.00000  -0.42144   0.00000   0.00000
  10        7PY         0.00000   0.00000   0.00000  -0.16386   0.00000
  11        7PZ         0.00000   0.00911   0.00000   0.00000   0.00000
  12        8PX         4.13419   0.00000   1.57011   0.00000   0.00000
  13        8PY         0.00000   0.00000   0.00000   0.12268   0.00000
  14        8PZ         0.00000  -6.45801   0.00000   0.00000   0.00000
  15        9PX         0.91002   0.00000  -0.02771   0.00000   0.00000
  16        9PY         0.00000   0.00000   0.00000   0.88120   0.00000
  17        9PZ         0.00000  -1.20773   0.00000   0.00000   0.00000
  18       10D 0        0.00000  -0.01601   0.00000   0.00000   0.00000
  19       10D+1        0.01368   0.00000   0.01745   0.00000   0.00000
  20       10D-1        0.00000   0.00000   0.00000   0.00711   0.00000
  21       10D+2        0.00000   0.01179   0.00000   0.00000   0.00000
  22       10D-2        0.00000   0.00000   0.00000   0.00000  -0.02389
  23       11D 0        0.00000   0.08798   0.00000   0.00000   0.00000
  24       11D+1       -0.14896   0.00000  -0.09095   0.00000   0.00000
  25       11D-1        0.00000   0.00000   0.00000  -0.04204   0.00000
  26       11D+2        0.00000  -0.37308   0.00000   0.00000   0.00000
  27       11D-2        0.00000   0.00000   0.00000   0.00000   0.11210
  28       12D 0        0.00000   0.62768   0.00000   0.00000   0.00000
  29       12D+1       -1.34541   0.00000   0.73710   0.00000   0.00000
  30       12D-1        0.00000   0.00000   0.00000   1.26293   0.00000
  31       12D+2        0.00000  -1.32232   0.00000   0.00000   0.00000
  32       12D-2        0.00000   0.00000   0.00000   0.00000   0.20012
  33       13F 0        0.00000   0.01690   0.00000   0.00000   0.00000
  34       13F+1       -0.01829   0.00000   0.02239   0.00000   0.00000
  35       13F-1        0.00000   0.00000   0.00000   0.01704   0.00000
  36       13F+2        0.00000   0.00558   0.00000   0.00000   0.00000
  37       13F-2        0.00000   0.00000   0.00000   0.00000  -0.00100
  38       13F+3        0.01001   0.00000   0.01950   0.00000   0.00000
  39       13F-3        0.00000   0.00000   0.00000  -0.02093   0.00000
  40       14F 0        0.00000   0.05167   0.00000   0.00000   0.00000
  41       14F+1        0.11948   0.00000  -0.09442   0.00000   0.00000
  42       14F-1        0.00000   0.00000   0.00000  -0.16731   0.00000
  43       14F+2        0.00000   0.27471   0.00000   0.00000   0.00000
  44       14F-2        0.00000   0.00000   0.00000   0.00000  -0.01215
  45       14F+3       -0.16532   0.00000  -0.15338   0.00000   0.00000
  46       14F-3        0.00000   0.00000   0.00000   0.06390   0.00000
  47 2   H  1S          0.00000   0.05090   0.00000  -0.04648   0.00000
  48        2S          0.00000  -4.65426   0.00000  -1.43079   0.00000
  49        3S          0.00000  -5.44742   0.00000   1.96619   0.00000
  50        4S          0.00000  -0.39662   0.00000   0.19294   0.00000
  51        5PX         0.03733   0.00000  -0.00701   0.00000  -0.00233
  52        5PY         0.00000  -0.02812   0.00000  -0.00281   0.00000
  53        5PZ         0.00000  -0.05008   0.00000  -0.00851   0.00000
  54        6PX        -0.66591   0.00000  -0.18744   0.00000   0.00211
  55        6PY         0.00000  -1.59446   0.00000   0.06472   0.00000
  56        6PZ         0.00000  -0.64810   0.00000   0.39304   0.00000
  57        7PX        -1.58197   0.00000  -0.36907   0.00000   0.53843
  58        7PY         0.00000  -1.05198   0.00000  -0.02770   0.00000
  59        7PZ         0.00000  -0.06392   0.00000   0.93490   0.00000
  60        8D 0        0.00000   0.00767   0.00000   0.02993   0.00000
  61        8D+1       -0.02456   0.00000  -0.00598   0.00000  -0.02642
  62        8D-1        0.00000  -0.07149   0.00000   0.01867   0.00000
  63        8D+2        0.00000   0.05606   0.00000  -0.02063   0.00000
  64        8D-2       -0.01508   0.00000  -0.02921   0.00000   0.00257
  65        9D 0        0.00000   0.20926   0.00000  -0.15180   0.00000
  66        9D+1       -0.30019   0.00000  -0.69413   0.00000   0.92691
  67        9D-1        0.00000   0.15826   0.00000   0.22648   0.00000
  68        9D+2        0.00000   0.33086   0.00000   0.49992   0.00000
  69        9D-2       -1.07819   0.00000   0.27879   0.00000   0.40294
  70 3   H  1S          0.00000   0.05090   0.00000   0.04648   0.00000
  71        2S          0.00000  -4.65426   0.00000   1.43079   0.00000
  72        3S          0.00000  -5.44742   0.00000  -1.96619   0.00000
  73        4S          0.00000  -0.39662   0.00000  -0.19294   0.00000
  74        5PX         0.03733   0.00000  -0.00701   0.00000   0.00233
  75        5PY         0.00000   0.02812   0.00000  -0.00281   0.00000
  76        5PZ         0.00000  -0.05008   0.00000   0.00851   0.00000
  77        6PX        -0.66591   0.00000  -0.18744   0.00000  -0.00211
  78        6PY         0.00000   1.59446   0.00000   0.06472   0.00000
  79        6PZ         0.00000  -0.64810   0.00000  -0.39304   0.00000
  80        7PX        -1.58197   0.00000  -0.36907   0.00000  -0.53843
  81        7PY         0.00000   1.05198   0.00000  -0.02770   0.00000
  82        7PZ         0.00000  -0.06392   0.00000  -0.93490   0.00000
  83        8D 0        0.00000   0.00767   0.00000  -0.02993   0.00000
  84        8D+1       -0.02456   0.00000  -0.00598   0.00000   0.02642
  85        8D-1        0.00000   0.07149   0.00000   0.01867   0.00000
  86        8D+2        0.00000   0.05606   0.00000   0.02063   0.00000
  87        8D-2        0.01508   0.00000   0.02921   0.00000   0.00257
  88        9D 0        0.00000   0.20926   0.00000   0.15180   0.00000
  89        9D+1       -0.30019   0.00000  -0.69413   0.00000  -0.92691
  90        9D-1        0.00000  -0.15826   0.00000   0.22648   0.00000
  91        9D+2        0.00000   0.33086   0.00000  -0.49992   0.00000
  92        9D-2        1.07819   0.00000  -0.27879   0.00000   0.40294
                          31        32        33        34        35
                        (B2)--V   (A1)--V   (A1)--V   (B2)--V   (B1)--V
     Eigenvalues --     0.89089   0.92157   0.96986   0.97940   1.01119
   1 1   O  1S          0.00000   0.05061   0.08978   0.00000   0.00000
   2        2S          0.00000  -0.05524  -0.13088   0.00000   0.00000
   3        3S          0.00000  -0.00554  -0.05858   0.00000   0.00000
   4        4S          0.00000   0.37603   6.16789   0.00000   0.00000
   5        5S          0.00000   3.61634   4.96464   0.00000   0.00000
   6        6PX         0.00000   0.00000   0.00000   0.00000   0.13053
   7        6PY        -0.11996   0.00000   0.00000  -0.23243   0.00000
   8        6PZ         0.00000   0.07282   0.08429   0.00000   0.00000
   9        7PX         0.00000   0.00000   0.00000   0.00000   0.45191
  10        7PY         0.02118   0.00000   0.00000   0.15444   0.00000
  11        7PZ         0.00000   0.11813  -0.16606   0.00000   0.00000
  12        8PX         0.00000   0.00000   0.00000   0.00000   0.38653
  13        8PY         6.31137   0.00000   0.00000  -1.39626   0.00000
  14        8PZ         0.00000   0.90550   1.04685   0.00000   0.00000
  15        9PX         0.00000   0.00000   0.00000   0.00000   0.34309
  16        9PY         3.15874   0.00000   0.00000   0.25699   0.00000
  17        9PZ         0.00000  -0.32308   0.08521   0.00000   0.00000
  18       10D 0        0.00000  -0.01743   0.00686   0.00000   0.00000
  19       10D+1        0.00000   0.00000   0.00000   0.00000   0.01470
  20       10D-1        0.00023   0.00000   0.00000  -0.00655   0.00000
  21       10D+2        0.00000   0.00150  -0.00009   0.00000   0.00000
  22       10D-2        0.00000   0.00000   0.00000   0.00000   0.00000
  23       11D 0        0.00000   0.04821  -0.06908   0.00000   0.00000
  24       11D+1        0.00000   0.00000   0.00000   0.00000  -0.04913
  25       11D-1       -0.09904   0.00000   0.00000  -0.18783   0.00000
  26       11D+2        0.00000   0.00753  -0.08388   0.00000   0.00000
  27       11D-2        0.00000   0.00000   0.00000   0.00000   0.00000
  28       12D 0        0.00000  -1.01991   0.08270   0.00000   0.00000
  29       12D+1        0.00000   0.00000   0.00000   0.00000   0.82690
  30       12D-1       -0.91634   0.00000   0.00000   2.11120   0.00000
  31       12D+2        0.00000   1.86991   0.39644   0.00000   0.00000
  32       12D-2        0.00000   0.00000   0.00000   0.00000   0.00000
  33       13F 0        0.00000  -0.01859   0.01122   0.00000   0.00000
  34       13F+1        0.00000   0.00000   0.00000   0.00000   0.00704
  35       13F-1        0.01755   0.00000   0.00000   0.01818   0.00000
  36       13F+2        0.00000   0.00879   0.01160   0.00000   0.00000
  37       13F-2        0.00000   0.00000   0.00000   0.00000   0.00000
  38       13F+3        0.00000   0.00000   0.00000   0.00000   0.01205
  39       13F-3        0.01442   0.00000   0.00000  -0.01137   0.00000
  40       14F 0        0.00000   0.05000  -0.07048   0.00000   0.00000
  41       14F+1        0.00000   0.00000   0.00000   0.00000  -0.04465
  42       14F-1       -0.18186   0.00000   0.00000  -0.10056   0.00000
  43       14F+2        0.00000  -0.13688  -0.11456   0.00000   0.00000
  44       14F-2        0.00000   0.00000   0.00000   0.00000   0.00000
  45       14F+3        0.00000   0.00000   0.00000   0.00000  -0.02229
  46       14F-3       -0.19262   0.00000   0.00000   0.06937   0.00000
  47 2   H  1S         -0.05911   0.04527   0.09731  -0.11019   0.00000
  48        2S          2.52096   2.35284   0.57113  -1.80490   0.00000
  49        3S          3.48570  -2.99089  -4.35810   7.72459   0.00000
  50        4S          1.00644  -0.17852  -0.29474   0.77242   0.00000
  51        5PX         0.00000   0.00000   0.00000   0.00000  -0.01367
  52        5PY         0.03243   0.02110   0.01649  -0.02392   0.00000
  53        5PZ        -0.01730   0.02478   0.02125   0.00807   0.00000
  54        6PX         0.00000   0.00000   0.00000   0.00000   0.28815
  55        6PY         0.16194   0.08698  -0.42693   0.62871   0.00000
  56        6PZ         0.79238  -0.11716  -0.37476   0.47520   0.00000
  57        7PX         0.00000   0.00000   0.00000   0.00000  -0.38750
  58        7PY        -1.27347  -1.20513  -1.86779   3.78711   0.00000
  59        7PZ         2.57404  -0.68085  -1.81071   1.22086   0.00000
  60        8D 0        0.01448  -0.02306   0.00409   0.00099   0.00000
  61        8D+1        0.00000   0.00000   0.00000   0.00000   0.02841
  62        8D-1        0.01762   0.01241  -0.01676   0.05397   0.00000
  63        8D+2       -0.01718   0.00372   0.00215  -0.01743   0.00000
  64        8D-2        0.00000   0.00000   0.00000   0.00000   0.02783
  65        9D 0        1.17360   0.75333  -0.43496  -0.05217   0.00000
  66        9D+1        0.00000   0.00000   0.00000   0.00000  -0.81674
  67        9D-1        0.65263  -0.62586  -1.08806   0.79055   0.00000
  68        9D+2        0.75429  -0.17179   0.82469  -1.31082   0.00000
  69        9D-2        0.00000   0.00000   0.00000   0.00000  -0.45296
  70 3   H  1S          0.05911   0.04527   0.09731   0.11019   0.00000
  71        2S         -2.52096   2.35284   0.57113   1.80490   0.00000
  72        3S         -3.48570  -2.99089  -4.35810  -7.72459   0.00000
  73        4S         -1.00644  -0.17852  -0.29474  -0.77242   0.00000
  74        5PX         0.00000   0.00000   0.00000   0.00000  -0.01367
  75        5PY         0.03243  -0.02110  -0.01649  -0.02392   0.00000
  76        5PZ         0.01730   0.02478   0.02125  -0.00807   0.00000
  77        6PX         0.00000   0.00000   0.00000   0.00000   0.28815
  78        6PY         0.16194  -0.08698   0.42693   0.62871   0.00000
  79        6PZ        -0.79238  -0.11716  -0.37476  -0.47520   0.00000
  80        7PX         0.00000   0.00000   0.00000   0.00000  -0.38750
  81        7PY        -1.27347   1.20513   1.86779   3.78711   0.00000
  82        7PZ        -2.57404  -0.68085  -1.81071  -1.22086   0.00000
  83        8D 0       -0.01448  -0.02306   0.00409  -0.00099   0.00000
  84        8D+1        0.00000   0.00000   0.00000   0.00000   0.02841
  85        8D-1        0.01762  -0.01241   0.01676   0.05397   0.00000
  86        8D+2        0.01718   0.00372   0.00215   0.01743   0.00000
  87        8D-2        0.00000   0.00000   0.00000   0.00000  -0.02783
  88        9D 0       -1.17360   0.75333  -0.43496   0.05217   0.00000
  89        9D+1        0.00000   0.00000   0.00000   0.00000  -0.81674
  90        9D-1        0.65263   0.62586   1.08806   0.79055   0.00000
  91        9D+2       -0.75429  -0.17179   0.82469   1.31082   0.00000
  92        9D-2        0.00000   0.00000   0.00000   0.00000   0.45296
                          36        37        38        39        40
                        (B2)--V   (A1)--V   (A2)--V   (B2)--V   (A2)--V
     Eigenvalues --     1.08637   1.12715   1.13722   1.18923   1.41994
   1 1   O  1S          0.00000  -0.01297   0.00000   0.00000   0.00000
   2        2S          0.00000   0.07392   0.00000   0.00000   0.00000
   3        3S          0.00000  -0.00762   0.00000   0.00000   0.00000
   4        4S          0.00000   1.68533   0.00000   0.00000   0.00000
   5        5S          0.00000   1.26869   0.00000   0.00000   0.00000
   6        6PX         0.00000   0.00000   0.00000   0.00000   0.00000
   7        6PY        -0.01968   0.00000   0.00000  -0.10336   0.00000
   8        6PZ         0.00000   0.08305   0.00000   0.00000   0.00000
   9        7PX         0.00000   0.00000   0.00000   0.00000   0.00000
  10        7PY        -0.16209   0.00000   0.00000   0.32763   0.00000
  11        7PZ         0.00000   0.13451   0.00000   0.00000   0.00000
  12        8PX         0.00000   0.00000   0.00000   0.00000   0.00000
  13        8PY         0.78558   0.00000   0.00000  12.57114   0.00000
  14        8PZ         0.00000   0.55908   0.00000   0.00000   0.00000
  15        9PX         0.00000   0.00000   0.00000   0.00000   0.00000
  16        9PY         0.07303   0.00000   0.00000   2.23789   0.00000
  17        9PZ         0.00000  -0.00836   0.00000   0.00000   0.00000
  18       10D 0        0.00000   0.02730   0.00000   0.00000   0.00000
  19       10D+1        0.00000   0.00000   0.00000   0.00000   0.00000
  20       10D-1        0.00449   0.00000   0.00000   0.05459   0.00000
  21       10D+2        0.00000   0.02747   0.00000   0.00000   0.00000
  22       10D-2        0.00000   0.00000  -0.02611   0.00000  -0.04186
  23       11D 0        0.00000  -0.08099   0.00000   0.00000   0.00000
  24       11D+1        0.00000   0.00000   0.00000   0.00000   0.00000
  25       11D-1        0.01933   0.00000   0.00000  -0.60308   0.00000
  26       11D+2        0.00000  -0.17852   0.00000   0.00000   0.00000
  27       11D-2        0.00000   0.00000   0.09945   0.00000   0.04965
  28       12D 0        0.00000  -0.34356   0.00000   0.00000   0.00000
  29       12D+1        0.00000   0.00000   0.00000   0.00000   0.00000
  30       12D-1        1.63683   0.00000   0.00000  -5.33267   0.00000
  31       12D+2        0.00000   0.05250   0.00000   0.00000   0.00000
  32       12D-2        0.00000   0.00000  -1.05073   0.00000   2.91315
  33       13F 0        0.00000  -0.00658   0.00000   0.00000   0.00000
  34       13F+1        0.00000   0.00000   0.00000   0.00000   0.00000
  35       13F-1        0.01660   0.00000   0.00000  -0.00567   0.00000
  36       13F+2        0.00000   0.01072   0.00000   0.00000   0.00000
  37       13F-2        0.00000   0.00000   0.01222   0.00000   0.02518
  38       13F+3        0.00000   0.00000   0.00000   0.00000   0.00000
  39       13F-3        0.01935   0.00000   0.00000  -0.00692   0.00000
  40       14F 0        0.00000   0.07614   0.00000   0.00000   0.00000
  41       14F+1        0.00000   0.00000   0.00000   0.00000   0.00000
  42       14F-1       -0.23798   0.00000   0.00000   0.31593   0.00000
  43       14F+2        0.00000   0.03521   0.00000   0.00000   0.00000
  44       14F-2        0.00000   0.00000  -0.07208   0.00000  -0.33708
  45       14F+3        0.00000   0.00000   0.00000   0.00000   0.00000
  46       14F-3       -0.16029   0.00000   0.00000  -0.17340   0.00000
  47 2   H  1S          0.01962  -0.03682   0.00000   0.09213   0.00000
  48        2S         -1.16815  -1.05629   0.00000   9.40905   0.00000
  49        3S          2.17402  -0.77847   0.00000   9.75951   0.00000
  50        4S         -0.02055  -0.01811   0.00000   0.81532   0.00000
  51        5PX         0.00000   0.00000   0.01164   0.00000  -0.04819
  52        5PY        -0.00917  -0.01318   0.00000   0.09262   0.00000
  53        5PZ         0.00190  -0.01484   0.00000   0.03960   0.00000
  54        6PX         0.00000   0.00000   0.00713   0.00000   2.27794
  55        6PY        -0.29102  -0.35696   0.00000   1.79885   0.00000
  56        6PZ         0.50861  -0.48302   0.00000   0.90637   0.00000
  57        7PX         0.00000   0.00000   0.48677   0.00000   1.26095
  58        7PY         0.63020   0.48109   0.00000   2.25727   0.00000
  59        7PZ         0.00993  -0.44229   0.00000   0.57907   0.00000
  60        8D 0        0.02065   0.00449   0.00000  -0.01884   0.00000
  61        8D+1        0.00000   0.00000   0.03358   0.00000   0.03301
  62        8D-1        0.03502  -0.01906   0.00000   0.09463   0.00000
  63        8D+2        0.02254   0.03732   0.00000  -0.08703   0.00000
  64        8D-2        0.00000   0.00000  -0.02727   0.00000   0.05898
  65        9D 0        0.83321  -0.81051   0.00000  -0.65993   0.00000
  66        9D+1        0.00000   0.00000  -0.54547   0.00000   1.01739
  67        9D-1       -1.03892  -0.42346   0.00000  -0.47795   0.00000
  68        9D+2       -0.12995  -0.96160   0.00000   0.26065   0.00000
  69        9D-2        0.00000   0.00000   1.36350   0.00000   0.79584
  70 3   H  1S         -0.01962  -0.03682   0.00000  -0.09213   0.00000
  71        2S          1.16815  -1.05629   0.00000  -9.40905   0.00000
  72        3S         -2.17402  -0.77847   0.00000  -9.75951   0.00000
  73        4S          0.02055  -0.01811   0.00000  -0.81532   0.00000
  74        5PX         0.00000   0.00000  -0.01164   0.00000   0.04819
  75        5PY        -0.00917   0.01318   0.00000   0.09262   0.00000
  76        5PZ        -0.00190  -0.01484   0.00000  -0.03960   0.00000
  77        6PX         0.00000   0.00000  -0.00713   0.00000  -2.27794
  78        6PY        -0.29102   0.35696   0.00000   1.79885   0.00000
  79        6PZ        -0.50861  -0.48302   0.00000  -0.90637   0.00000
  80        7PX         0.00000   0.00000  -0.48677   0.00000  -1.26095
  81        7PY         0.63020  -0.48109   0.00000   2.25727   0.00000
  82        7PZ        -0.00993  -0.44229   0.00000  -0.57907   0.00000
  83        8D 0       -0.02065   0.00449   0.00000   0.01884   0.00000
  84        8D+1        0.00000   0.00000  -0.03358   0.00000  -0.03301
  85        8D-1        0.03502   0.01906   0.00000   0.09463   0.00000
  86        8D+2       -0.02254   0.03732   0.00000   0.08703   0.00000
  87        8D-2        0.00000   0.00000  -0.02727   0.00000   0.05898
  88        9D 0       -0.83321  -0.81051   0.00000   0.65993   0.00000
  89        9D+1        0.00000   0.00000   0.54547   0.00000  -1.01739
  90        9D-1       -1.03892   0.42346   0.00000  -0.47795   0.00000
  91        9D+2        0.12995  -0.96160   0.00000  -0.26065   0.00000
  92        9D-2        0.00000   0.00000   1.36350   0.00000   0.79584
                          41        42        43        44        45
                        (A1)--V   (B1)--V   (A1)--V   (B2)--V   (B2)--V
     Eigenvalues --     1.47582   1.48765   1.65964   1.66286   1.84496
   1 1   O  1S          0.00903   0.00000   0.00456   0.00000   0.00000
   2        2S         -0.24479   0.00000  -0.51323   0.00000   0.00000
   3        3S         -0.09998   0.00000  -0.26389   0.00000   0.00000
   4        4S          4.36393   0.00000  15.73750   0.00000   0.00000
   5        5S          2.88214   0.00000   9.18215   0.00000   0.00000
   6        6PX         0.00000   0.10413   0.00000   0.00000   0.00000
   7        6PY         0.00000   0.00000   0.00000   0.08356   0.22017
   8        6PZ         0.03559   0.00000  -0.12430   0.00000   0.00000
   9        7PX         0.00000   0.30562   0.00000   0.00000   0.00000
  10        7PY         0.00000   0.00000   0.00000   0.36810   1.06147
  11        7PZ        -0.18423   0.00000  -1.29000   0.00000   0.00000
  12        8PX         0.00000   5.22911   0.00000   0.00000   0.00000
  13        8PY         0.00000   0.00000   0.00000   9.71500  -3.18874
  14        8PZ         2.53771   0.00000  -6.51994   0.00000   0.00000
  15        9PX         0.00000   0.85311   0.00000   0.00000   0.00000
  16        9PY         0.00000   0.00000   0.00000   2.06404   0.55053
  17        9PZ         0.32411   0.00000  -1.45157   0.00000   0.00000
  18       10D 0        0.03452   0.00000  -0.00771   0.00000   0.00000
  19       10D+1        0.00000   0.02679   0.00000   0.00000   0.00000
  20       10D-1        0.00000   0.00000   0.00000  -0.00900   0.01295
  21       10D+2        0.02402   0.00000   0.01734   0.00000   0.00000
  22       10D-2        0.00000   0.00000   0.00000   0.00000   0.00000
  23       11D 0       -0.03360   0.00000  -0.17179   0.00000   0.00000
  24       11D+1        0.00000   0.04971   0.00000   0.00000   0.00000
  25       11D-1        0.00000   0.00000   0.00000  -0.05195   0.41931
  26       11D+2       -0.09993   0.00000  -0.16130   0.00000   0.00000
  27       11D-2        0.00000   0.00000   0.00000   0.00000   0.00000
  28       12D 0       -2.58422   0.00000   1.01202   0.00000   0.00000
  29       12D+1        0.00000  -2.00309   0.00000   0.00000   0.00000
  30       12D-1        0.00000   0.00000   0.00000  -1.90874   1.88517
[...]
                      KCal/Mol        Cal/Mol-Kelvin    Cal/Mol-Kelvin
 Total                   15.362              6.008             45.057
 Electronic               0.000              0.000              0.000
 Translational            0.889              2.981             34.608
 Rotational               0.889              2.981             10.442
 Vibrational             13.585              0.046              0.007
                       Q            Log10(Q)             Ln(Q)
 Total Bot       0.141921D-01         -1.847954         -4.255071
 Total V=0       0.128403D+09          8.108577         18.670688
 Vib (Bot)       0.110568D-09         -9.956370        -22.925389
 Vib (V=0)       0.100037D+01          0.000161          0.000370
 Electronic      0.100000D+01          0.000000          0.000000
 Translational   0.300431D+07          6.477745         14.915559
 Rotational      0.427239D+02          1.630671          3.754759
 
                                          H2O DFT WB97XDS aug-cc-pVTZ Opt Freq - 
 Full - NBO
                                                             IR Spectrum
 
     3   3                                                                      1                                                    
     9   8                                                                      6                                                    
     8   7                                                                      3                                                    
     5   9                                                                      7                                                    
 
     X   X                                                                      X                                                    
     X                                                                          X                                                    
     X                                                                          X                                                    
     X                                                                          X                                                    
     X                                                                          X                                                    
     X                                                                          X                                                    
     X                                                                          X                                                    
     X                                                                          X                                                    
     X                                                                          X                                                    
     X                                                                          X                                                    
     X                                                                          X                                                    
     X                                                                          X                                                    
     X                                                                          X                                                    
     X                                                                          X                                                    
     X                                                                          X                                                    
     X                                                                          X                                                    
                                                                                X                                                    
                                                                                X                                                    
                                                                                X                                                    
                                                                                X                                                    
 
 
                                          H2O DFT WB97XDS aug-cc-pVTZ Opt Freq - 
 Full - NBO
                                                            Raman Spectrum
 
     3   3                                                                      1                                                    
     9   8                                                                      6                                                    
     8   7                                                                      3                                                    
     5   9                                                                      7                                                    
 
     X   X                                                                      X                                                    
     X   X                                                                                                                           
     X   X                                                                                                                           
     X   X                                                                                                                           
     X   X                                                                                                                           
         X                                                                                                                           
         X                                                                                                                           
         X                                                                                                                           
         X                                                                                                                           
         X                                                                                                                           
         X                                                                                                                           
         X                                                                                                                           
         X                                                                                                                           
         X                                                                                                                           
         X                                                                                                                           
         X                                                                                                                           
         X                                                                                                                           
         X                                                                                                                           
         X                                                                                                                           
         X                                                                                                                           
 
 ***** Axes restored to original set *****
 -------------------------------------------------------------------
 Center     Atomic                   Forces (Hartrees/Bohr)
 Number     Number              X              Y              Z
 -------------------------------------------------------------------
      1        8           0.000000496    0.000000702    0.000000000
      2        1           0.000000520   -0.000000894    0.000000000
      3        1          -0.000001016    0.000000192   -0.000000000
 -------------------------------------------------------------------
 Cartesian Forces:  Max     0.000001016 RMS     0.000000565
 Force constants in Cartesian coordinates: 
                1             2             3             4             5 
      1  0.626258D+00
      2 -0.114970D+00  0.544832D+00
      3  0.000000D+00  0.000000D+00  0.250370D-03
      4 -0.539770D+00  0.768050D-02  0.000000D+00  0.556166D+00
      5 -0.532269D-01 -0.457746D-01  0.000000D+00  0.262287D-02  0.478993D-01
      6  0.000000D+00  0.000000D+00 -0.125185D-03  0.000000D+00  0.000000D+00
      7 -0.864875D-01  0.107289D+00  0.000000D+00 -0.163958D-01  0.506040D-01
      8  0.168196D+00 -0.499058D+00  0.000000D+00 -0.103034D-01 -0.212462D-02
      9  0.000000D+00  0.000000D+00 -0.125185D-03  0.000000D+00  0.000000D+00
                6             7             8             9 
      6  0.131216D-03
      7  0.000000D+00  0.102883D+00
      8  0.000000D+00 -0.157893D+00  0.501182D+00
      9 -0.603121D-05  0.000000D+00  0.000000D+00  0.131216D-03
 FormGI is forming the generalized inverse of G from B-inverse, IUseBI=4.
 Force constants in internal coordinates: 
                1             2             3 
      1  0.555647D+00
      2 -0.564797D-02  0.555647D+00
      3  0.305707D-01  0.305707D-01  0.158454D+00
 Leave Link  716 at Fri Sep  6 10:45:49 2024, MaxMem=  1073741824 cpu:               0.1 elap:               0.0
 (Enter /Users/asuyarger/Applications/G16/g16/l103.exe)

 GradGradGradGradGradGradGradGradGradGradGradGradGradGradGradGradGradGrad
 Berny optimization.
 Red2BG is reusing G-inverse.
 Internal  Forces:  Max     0.000001652 RMS     0.000001033
 Search for a local minimum.
 Step number   1 out of a maximum of    2
 All quantities printed in internal units (Hartrees-Bohrs-Radians)
 Second derivative matrix not updated -- analytic derivatives used.
 The second derivative matrix:
                          R1        R2        A1
           R1           0.55565
           R2          -0.00565   0.55565
           A1           0.03057   0.03057   0.15845
 ITU=  0
     Eigenvalues ---    0.15374   0.55472   0.56130
 Angle between quadratic step and forces=  20.12 degrees.
 Linear search not attempted -- first point.
 Iteration  1 RMS(Cart)=  0.00000591 RMS(Int)=  0.00000000
 Iteration  2 RMS(Cart)=  0.00000000 RMS(Int)=  0.00000000
 ITry= 1 IFail=0 DXMaxC= 6.22D-06 DCOld= 1.00D+10 DXMaxT= 3.00D-01 DXLimC= 3.00D+00 Rises=F
 ClnCor:  largest displacement from symmetrization is 2.67D-15 for atom     3.
 Variable       Old X    -DE/DX   Delta X   Delta X   Delta X     New X
                                 (Linear)    (Quad)   (Total)
    R1        1.80919   0.00000   0.00000   0.00000   0.00000   1.80919
    R2        1.80919   0.00000   0.00000   0.00000   0.00000   1.80919
    A1        1.83417   0.00000   0.00000   0.00001   0.00001   1.83418
         Item               Value     Threshold  Converged?
 Maximum Force            0.000002     0.000015     YES
 RMS     Force            0.000001     0.000010     YES
 Maximum Displacement     0.000006     0.000060     YES
 RMS     Displacement     0.000006     0.000040     YES
 Predicted change in Energy=-8.664437D-12
 Optimization completed.
    -- Stationary point found.
                           ----------------------------
                           !   Optimized Parameters   !
                           ! (Angstroms and Degrees)  !
 --------------------------                            --------------------------
 ! Name  Definition              Value          Derivative Info.                !
 --------------------------------------------------------------------------------
 ! R1    R(1,2)                  0.9574         -DE/DX =    0.0                 !
 ! R2    R(1,3)                  0.9574         -DE/DX =    0.0                 !
 ! A1    A(2,1,3)              105.0899         -DE/DX =    0.0                 !
 --------------------------------------------------------------------------------
 GradGradGradGradGradGradGradGradGradGradGradGradGradGradGradGradGradGrad

 Leave Link  103 at Fri Sep  6 10:45:49 2024, MaxMem=  1073741824 cpu:               0.0 elap:               0.0
 (Enter /Users/asuyarger/Applications/G16/g16/l9999.exe)

 ----------------------------------------------------------------------

 Electric dipole moment (input orientation):
 (Debye = 10**-18 statcoulomb cm , SI units = C m)
                  (au)            (Debye)         (10**-30 SI)
   Tot        0.731399D+00      0.185903D+01      0.620106D+01
   x          0.422124D+00      0.107293D+01      0.357891D+01
   y          0.597291D+00      0.151816D+01      0.506404D+01
   z          0.000000D+00      0.000000D+00      0.000000D+00

 Dipole polarizability, Alpha (input orientation).
 (esu units = cm**3 , SI units = C**2 m**2 J**-1)
 Alpha(0;0):
               (au)            (10**-24 esu)      (10**-40 SI)
   iso        0.964750D+01      0.142961D+01      0.159066D+01
   aniso      0.594364D+00      0.880757D-01      0.979974D-01
   xx         0.987401D+01      0.146318D+01      0.162800D+01
   yx        -0.200227D+00     -0.296706D-01     -0.330130D-01
   yy         0.973220D+01      0.144216D+01      0.160462D+01
   zx         0.000000D+00      0.000000D+00      0.000000D+00
   zy         0.000000D+00      0.000000D+00      0.000000D+00
   zz         0.933629D+01      0.138350D+01      0.153935D+01

 First dipole hyperpolarizability, Beta (input orientation).
 ||, _|_  parallel and perpendicular components, (z) with respect to z axis,
 vector components x,y,z.  Values do not include the 1/n! factor of 1/2.
 (esu units = statvolt**-1 cm**4 , SI units = C**3 m**3 J**-2)
 Beta(0;0,0):
               (au)            (10**-30 esu)      (10**-50 SI)
   || (z)     0.000000D+00      0.000000D+00      0.000000D+00
   _|_(z)     0.000000D+00      0.000000D+00      0.000000D+00
   x          0.455986D+02      0.393937D+00      0.146206D+00
   y          0.645206D+02      0.557408D+00      0.206876D+00
   z          0.000000D+00      0.000000D+00      0.000000D+00
   ||         0.158014D+02      0.136512D+00      0.506651D-01
   xxx        0.157706D+02      0.136246D+00      0.505663D-01
   xxy        0.271026D+01      0.234145D-01      0.869006D-02
   yxy       -0.310744D+01     -0.268459D-01     -0.996358D-02
   yyy        0.152077D+02      0.131383D+00      0.487614D-01
   xxz        0.000000D+00      0.000000D+00      0.000000D+00
   yxz        0.000000D+00      0.000000D+00      0.000000D+00
   yyz        0.000000D+00      0.000000D+00      0.000000D+00
   zxz        0.253638D+01      0.219123D-01      0.813254D-02
   zyz        0.358889D+01      0.310052D-01      0.115073D-01
   zzz        0.000000D+00      0.000000D+00      0.000000D+00

 ----------------------------------------------------------------------

 Dipole orientation:
     8         -0.79790090          0.55431528          0.30311810
     1          0.37495361         -0.27457634          1.40335745
     1         -1.97075541          1.38320690          1.40335745

 Electric dipole moment (dipole orientation):
 (Debye = 10**-18 statcoulomb cm , SI units = C m)
                  (au)            (Debye)         (10**-30 SI)
   Tot        0.731399D+00      0.185903D+01      0.620106D+01
   x          0.000000D+00      0.000000D+00      0.000000D+00
   y          0.000000D+00      0.000000D+00      0.000000D+00
   z          0.731399D+00      0.185903D+01      0.620106D+01

 Dipole polarizability, Alpha (dipole orientation).
 (esu units = cm**3 , SI units = C**2 m**2 J**-1)
 Alpha(0;0):
               (au)            (10**-24 esu)      (10**-40 SI)
   iso        0.964750D+01      0.142961D+01      0.159066D+01
   aniso      0.594364D+00      0.880757D-01      0.979974D-01
   xx         0.978927D+01      0.145062D+01      0.161403D+01
   yx        -0.320132D+00     -0.474387D-01     -0.527826D-01
   yy         0.956254D+01      0.141702D+01      0.157665D+01
   zx         0.000000D+00      0.000000D+00      0.000000D+00
   zy         0.000000D+00      0.000000D+00      0.000000D+00
   zz         0.959069D+01      0.142119D+01      0.158129D+01

 First dipole hyperpolarizability, Beta (dipole orientation).
 ||, _|_  parallel and perpendicular components, (z) with respect to z axis,
 vector components x,y,z.  Values do not include the 1/n! factor of 1/2.
 (esu units = statvolt**-1 cm**4 , SI units = C**3 m**3 J**-2)
 Beta(0;0,0):
               (au)            (10**-30 esu)      (10**-50 SI)
   || (z)     0.158014D+02      0.136512D+00      0.506651D-01
   _|_(z)     0.526715D+01      0.455041D-01      0.168884D-01
   x          0.000000D+00      0.000000D+00      0.000000D+00
   y          0.000000D+00      0.000000D+00      0.000000D+00
   z          0.790072D+02      0.682561D+00      0.253326D+00
   ||         0.158014D+02      0.136512D+00      0.506651D-01
   xxx        0.000000D+00      0.000000D+00      0.000000D+00
   xxy        0.000000D+00      0.000000D+00      0.000000D+00
   yxy        0.000000D+00      0.000000D+00      0.000000D+00
   yyy        0.000000D+00      0.000000D+00      0.000000D+00
   xxz        0.946884D+01      0.818034D-01      0.303605D-01
   yxz       -0.358605D+01     -0.309807D-01     -0.114982D-01
   yyz        0.692906D+01      0.598617D-01      0.222171D-01
   zxz        0.000000D+00      0.000000D+00      0.000000D+00
   zyz        0.000000D+00      0.000000D+00      0.000000D+00
   zzz        0.993784D+01      0.858552D-01      0.318643D-01

 ----------------------------------------------------------------------
 1\1\GINC-JEFFSMACSTUDIO\Freq\RwB97XD\Aug-CC-pVTZ\H2O1\ROOT\06-Sep-2024
 \0\\#P Geom=AllCheck Guess=TCheck SCRF=Check GenChk RwB97XD/Aug-CC-pVT
 Z Freq\\H2O DFT WB97XDS aug-cc-pVTZ Opt Freq - Full - NBO\\0,1\O,-0.32
 72643462,0.4277056825,0.00414228\H,0.6294099254,0.4645414727,0.0041422
 8\H,-0.6118858312,1.3418025853,0.00414228\\Version=EM64M-G16RevA.03\St
 ate=1-A1\HF=-76.439928\RMSD=5.142e-10\RMSF=5.655e-07\ZeroPoint=0.02164
 62\Thermal=0.0244815\Dipole=0.4221235,0.597291,0.\DipoleDeriv=-0.45618
 15,0.067188,0.,0.067188,-0.4085964,0.,0.,0.,-0.6646999,0.1638632,-0.06
 28114,0.,-0.049865,0.2685258,0.,0.,0.,0.3323499,0.2923183,-0.0043766,0
 .,-0.017323,0.1400707,0.,0.,0.,0.3323499\Polar=9.8740064,-0.2002271,9.
 7321981,0.,0.,9.3362895\PolarDeriv=-5.9852902,-0.9496424,0.3801081,0.,
 0.,-0.9509083,-1.8347069,1.0056099,-6.0964423,0.,0.,-1.3455041,0.,0.,0
 .,-0.1331569,-0.1884127,0.,7.1313134,-0.0140116,1.5155892,0.,0.,1.5636
 636,-0.0404492,0.5392612,-0.1243273,0.,0.,-0.0963184,0.,0.,0.,0.259615
 4,-0.0422187,0.,-1.1460232,0.9636539,-1.8956973,0.,0.,-0.6127553,1.875
 1561,-1.5448711,6.2207696,0.,0.,1.4418224,0.,0.,0.,-0.1264585,0.230631
 4,0.\HyperPolar=15.7706109,2.7102573,-3.1074419,15.2077123,0.,0.,0.,2.
 5363767,3.5888899,0.\Quadrupole=0.8273805,0.3220933,-1.1494738,-0.7134
 435,0.,0.\PG=C02V [C2(O1),SGV(H2)]\NImag=0\\0.62625795,-0.11496952,0.5
 4483227,0.,0.,0.00025037,-0.53977048,0.00768050,0.,0.55616632,-0.05322
 691,-0.04577463,0.,0.00262287,0.04789925,0.,0.,-0.00012518,0.,0.,0.000
 13122,-0.08648747,0.10728902,0.,-0.01639584,0.05060404,0.,0.10288331,0
 .16819643,-0.49905764,0.,-0.01030337,-0.00212462,0.,-0.15789306,0.5011
 8226,0.,0.,-0.00012518,0.,0.,-0.00000603,0.,0.,0.00013122\\-0.00000050
 ,-0.00000070,0.,-0.00000052,0.00000089,0.,0.00000102,-0.00000019,0.\\\
 @


 I LOVE MANKIND - IT'S PEOPLE I CAN'T STAND.
     -- LINUS OF PEANUTS
 Job cpu time:       0 days  0 hours  0 minutes  6.8 seconds.
 Elapsed time:       0 days  0 hours  0 minutes  6.4 seconds.
 File lengths (MBytes):  RWF=     10 Int=      0 D2E=      0 Chk=      2 Scr=      1
 Normal termination of Gaussian 16 at Fri Sep  6 10:45:49 2024.
