 Entering Gaussian System, Link 0=g16
 Input=/Users/asuyarger/Downloads/H2O_PM6_Opt_Freq_Full_NBO.gjf
 Output=/Users/asuyarger/Downloads/H2O_PM6_Opt_Freq_Full_NBO.log
 Initial command:
 /Users/asuyarger/Applications/G16/g16/l1.exe "/Users/asuyarger/Applications/G16/scratch/Gau-88863.inp" -scrdir="/Users/asuyarger/Applications/G16/scratch/"
 Entering Link 1 = /Users/asuyarger/Applications/G16/g16/l1.exe PID=     88864.
  
 Copyright (c) 1988,1990,1992,1993,1995,1998,2003,2009,2016,
            Gaussian, Inc.  All Rights Reserved.
  
 This is part of the Gaussian(R) 16 program.  It is based on
 the Gaussian(R) 09 system (copyright 2009, Gaussian, Inc.),
 the Gaussian(R) 03 system (copyright 2003, Gaussian, Inc.),
 the Gaussian(R) 98 system (copyright 1998, Gaussian, Inc.),
 the Gaussian(R) 94 system (copyright 1995, Gaussian, Inc.),
 the Gaussian 92(TM) system (copyright 1992, Gaussian, Inc.),
 the Gaussian 90(TM) system (copyright 1990, Gaussian, Inc.),
 the Gaussian 88(TM) system (copyright 1988, Gaussian, Inc.),
 the Gaussian 86(TM) system (copyright 1986, Carnegie Mellon
 University), and the Gaussian 82(TM) system (copyright 1983,
 Carnegie Mellon University). Gaussian is a federally registered
 trademark of Gaussian, Inc.
  
 This software contains proprietary and confidential information,
 including trade secrets, belonging to Gaussian, Inc.
  
 This software is provided under written license and may be
 used, copied, transmitted, or stored only in accord with that
 written license.
  
 The following legend is applicable only to US Government
 contracts under FAR:
  
                    RESTRICTED RIGHTS LEGEND
  
 Use, reproduction and disclosure by the US Government is
 subject to restrictions as set forth in subparagraphs (a)
 and (c) of the Commercial Computer Software - Restricted
 Rights clause in FAR 52.227-19.
  
 Gaussian, Inc.
 340 Quinnipiac St., Bldg. 40, Wallingford CT 06492
  
  
 ---------------------------------------------------------------
 Warning -- This program may not be used in any manner that
 competes with the business of Gaussian, Inc. or will provide
 assistance to any competitor of Gaussian, Inc.  The licensee
 of this program is prohibited from giving any competitor of
 Gaussian, Inc. access to this program.  By using this program,
 the user acknowledges that Gaussian, Inc. is engaged in the
 business of creating and licensing software in the field of
 computational chemistry and represents and warrants to the
 licensee that it is not a competitor of Gaussian, Inc. and that
 it will not use this program in any manner prohibited above.
 ---------------------------------------------------------------
  

 Cite this work as:
 Gaussian 16, Revision A.03,
 M. J. Frisch, G. W. Trucks, H. B. Schlegel, G. E. Scuseria, 
 M. A. Robb, J. R. Cheeseman, G. Scalmani, V. Barone, 
 G. A. Petersson, H. Nakatsuji, X. Li, M. Caricato, A. V. Marenich, 
 J. Bloino, B. G. Janesko, R. Gomperts, B. Mennucci, H. P. Hratchian, 
 J. V. Ortiz, A. F. Izmaylov, J. L. Sonnenberg, D. Williams-Young, 
 F. Ding, F. Lipparini, F. Egidi, J. Goings, B. Peng, A. Petrone, 
 T. Henderson, D. Ranasinghe, V. G. Zakrzewski, J. Gao, N. Rega, 
 G. Zheng, W. Liang, M. Hada, M. Ehara, K. Toyota, R. Fukuda, 
 J. Hasegawa, M. Ishida, T. Nakajima, Y. Honda, O. Kitao, H. Nakai, 
 T. Vreven, K. Throssell, J. A. Montgomery, Jr., J. E. Peralta, 
 F. Ogliaro, M. J. Bearpark, J. J. Heyd, E. N. Brothers, K. N. Kudin, 
 V. N. Staroverov, T. A. Keith, R. Kobayashi, J. Normand, 
 K. Raghavachari, A. P. Rendell, J. C. Burant, S. S. Iyengar, 
 J. Tomasi, M. Cossi, J. M. Millam, M. Klene, C. Adamo, R. Cammi, 
 J. W. Ochterski, R. L. Martin, K. Morokuma, O. Farkas, 
 J. B. Foresman, and D. J. Fox, Gaussian, Inc., Wallingford CT, 2016.
 
 ******************************************
 Gaussian 16:  EM64M-G16RevA.03 25-Dec-2016
                 6-Sep-2024 
 ******************************************
 %chk=H2O_PM6_Opt_Freq_Full_NBO.chk
 ----------------------------------------------------------------------
 #p opt=tight freq=raman pm6 guess=save pop=(hirshfeld,full,nbo) geom=c
 onnectivity polar
 ----------------------------------------------------------------------
 1/7=10,18=20,19=15,26=1,38=1,57=2/1,3;
 2/9=110,12=2,17=6,18=5,40=1/2;
 3/5=2,25=1,41=3900000,71=1/1,2,3;
 4/35=1/1;
 5/5=2,35=1,38=5,98=1/2;
 6/7=3,28=1,40=1,79=1/1,7;
 7//1,2,3,16;
 1/7=10,18=20,19=15,26=1/3(2);
 2/9=110/2;
 99//99;
 2/9=110/2;
 3/5=2,25=1,41=3900000,71=1,135=20/1,2,3;
 4/5=5,16=3,35=1/1;
 5/5=2,35=1,38=5,98=1/2;
 7//1,2,3,16;
 1/7=10,18=20,19=15,26=1/3(-5);
 2/9=110/2;
 6/7=3,19=2,28=1,40=1,79=1/1,7;
 99/9=1/99;
 Leave Link    1 at Fri Sep  6 10:36:05 2024, MaxMem=           0 cpu:               0.0 elap:               0.0
 (Enter /Users/asuyarger/Applications/G16/g16/l101.exe)
 -----------------------------
 H2O PM6 Opt Freq - Full - NBO
 -----------------------------
 Symbolic Z-matrix:
 Charge =  0 Multiplicity = 1
 O                    -0.3165    0.44293   0.00414 
 H                     0.6435    0.44317   0.00414 
 H                    -0.63673   1.34795   0.00414 
 
 ITRead=  0  0  0
 MicOpt= -1 -1 -1
 NAtoms=      3 NQM=        3 NQMF=       0 NMMI=      0 NMMIF=      0
                NMic=       0 NMicF=      0.
                    Isotopes and Nuclear Properties:
 (Nuclear quadrupole moments (NQMom) in fm**2, nuclear magnetic moments (NMagM)
  in nuclear magnetons)

  Atom         1           2           3
 IAtWgt=          16           1           1
 AtmWgt=  15.9949146   1.0078250   1.0078250
 NucSpn=           0           1           1
 AtZEff=  -0.0000000  -0.0000000  -0.0000000
 NQMom=    0.0000000   0.0000000   0.0000000
 NMagM=    0.0000000   2.7928460   2.7928460
 AtZNuc=   8.0000000   1.0000000   1.0000000
 Leave Link  101 at Fri Sep  6 10:36:05 2024, MaxMem=   104857600 cpu:               0.1 elap:               0.1
 (Enter /Users/asuyarger/Applications/G16/g16/l103.exe)

 GradGradGradGradGradGradGradGradGradGradGradGradGradGradGradGradGradGrad
 Berny optimization.
 Initialization pass.
                           ----------------------------
                           !    Initial Parameters    !
                           ! (Angstroms and Degrees)  !
 --------------------------                            --------------------------
 ! Name  Definition              Value          Derivative Info.                !
 --------------------------------------------------------------------------------
 ! R1    R(1,2)                  0.96           estimate D2E/DX2                !
 ! R2    R(1,3)                  0.96           estimate D2E/DX2                !
 ! A1    A(2,1,3)              109.4712         estimate D2E/DX2                !
 --------------------------------------------------------------------------------
 Trust Radius=3.00D-01 FncErr=1.00D-07 GrdErr=1.00D-07 EigMax=2.50D+02 EigMin=1.00D-04
 Number of steps in this run=     20 maximum allowed number of steps=    100.
 GradGradGradGradGradGradGradGradGradGradGradGradGradGradGradGradGradGrad

 Leave Link  103 at Fri Sep  6 10:36:05 2024, MaxMem=   104857600 cpu:               0.0 elap:               0.0
 (Enter /Users/asuyarger/Applications/G16/g16/l202.exe)
                          Input orientation:                          
 ---------------------------------------------------------------------
 Center     Atomic      Atomic             Coordinates (Angstroms)
 Number     Number       Type             X           Y           Z
 ---------------------------------------------------------------------
      1          8           0       -0.316504    0.442931    0.004142
      2          1           0        0.643496    0.443172    0.004142
      3          1           0       -0.636732    1.347947    0.004142
 ---------------------------------------------------------------------
                    Distance matrix (angstroms):
                    1          2          3
     1  O    0.000000
     2  H    0.960000   0.000000
     3  H    0.960000   1.567673   0.000000
 Stoichiometry    H2O
 Framework group  C2V[C2(O),SGV(H2)]
 Deg. of freedom     2
 Full point group                 C2V     NOp   4
 Largest Abelian subgroup         C2V     NOp   4
 Largest concise Abelian subgroup C2      NOp   2
                         Standard orientation:                         
 ---------------------------------------------------------------------
 Center     Atomic      Atomic             Coordinates (Angstroms)
 Number     Number       Type             X           Y           Z
 ---------------------------------------------------------------------
      1          8           0        0.000000   -0.000000    0.110851
      2          1           0       -0.000000   -0.783837   -0.443405
      3          1           0        0.000000    0.783837   -0.443405
 ---------------------------------------------------------------------
 Rotational constants (GHZ):         919.0226998         408.0852142         282.5991552
 Leave Link  202 at Fri Sep  6 10:36:05 2024, MaxMem=   104857600 cpu:               0.0 elap:               0.0
 (Enter /Users/asuyarger/Applications/G16/g16/l301.exe)
 Standard basis: VSTO-6G (5D, 7F)
 Ernie: Thresh=  0.10000D-02 Tol=  0.10000D-05 Strict=F.
  NNHCO=     0 NNPyr=     0 NCTC=     0               EPep=         0.000000000
    EC=         4.556092794  ECS=         0.518768916   EG=         0.001802349
   EHC=         0.000637153  EAt=       -11.378367313  AtH=         0.260972952
 EPDDG=         0.000000000  ECC=         5.077301211 EAtT=        11.639340265
 There are     3 symmetry adapted cartesian basis functions of A1  symmetry.
 There are     0 symmetry adapted cartesian basis functions of A2  symmetry.
 There are     1 symmetry adapted cartesian basis functions of B1  symmetry.
 There are     2 symmetry adapted cartesian basis functions of B2  symmetry.
 There are     3 symmetry adapted basis functions of A1  symmetry.
 There are     0 symmetry adapted basis functions of A2  symmetry.
 There are     1 symmetry adapted basis functions of B1  symmetry.
 There are     2 symmetry adapted basis functions of B2  symmetry.
     6 basis functions,    36 primitive gaussians,     6 cartesian basis functions
     4 alpha electrons        4 beta electrons
       nuclear repulsion energy        16.7166414769 Hartrees.
 IExCor=    0 DFT=F Ex=HF Corr=None ExCW=0 ScaHFX=  1.000000
 ScaDFX=  1.000000  1.000000  1.000000  1.000000 ScalE2=  1.000000  1.000000
 IRadAn=      5 IRanWt=     -1 IRanGd=            0 ICorTp=0 IEmpDi=  4
 Integral buffers will be    131072 words long.
 Regular integral format.
 Two-electron integral symmetry is turned off.
 Leave Link  301 at Fri Sep  6 10:36:05 2024, MaxMem=   104857600 cpu:               0.0 elap:               0.0
 (Enter /Users/asuyarger/Applications/G16/g16/l302.exe)
 Do NDO integrals.
 NPDir=0 NMtPBC=     1 NCelOv=     1 NCel=       1 NClECP=     1 NCelD=      1
         NCelK=      1 NCelE2=     1 NClLst=     1 CellRange=     0.0.
 One-electron integrals computed using PRISM.
 NBasis=     6 RedAO= T EigKep=  1.00D+00  NBF=     3     0     1     2
 NBsUse=     6 1.00D-06 EigRej= -1.00D+00 NBFU=     3     0     1     2
 Leave Link  302 at Fri Sep  6 10:36:05 2024, MaxMem=   104857600 cpu:               0.0 elap:               0.0
 (Enter /Users/asuyarger/Applications/G16/g16/l303.exe)
 DipDrv:  MaxL=1.
 Leave Link  303 at Fri Sep  6 10:36:05 2024, MaxMem=   104857600 cpu:               0.0 elap:               0.0
 (Enter /Users/asuyarger/Applications/G16/g16/l401.exe)
 Simple Huckel Guess.
 JPrj=0 DoOrth=F DoCkMO=F.
 Initial guess orbital symmetries:
       Occupied  (A1) (B2) (A1) (B1)
       Virtual   (B2) (A1)
 The electronic state of the initial guess is 1-A1.
 Leave Link  401 at Fri Sep  6 10:36:06 2024, MaxMem=   104857600 cpu:               0.0 elap:               0.0
 (Enter /Users/asuyarger/Applications/G16/g16/l502.exe)
 Keep J ints in memory in canonical form, NReq=859134.
 FoFCou: FMM=F IPFlag=           0 FMFlag=           0 FMFlg1=           0
         NFxFlg=           0 DoJE=F BraDBF=F KetDBF=F FulRan=T
         wScrn=  0.000000 ICntrl=       600 IOpCl=  2 I1Cent=           0 NGrid=           0
         NMat0=    1 NMatS0=     12 NMatT0=    0 NMatD0=    1 NMtDS0=    0 NMtDT0=    0
 Symmetry not used in FoFCou.
 Two-electron integral symmetry not used.
 Closed shell SCF:
 Using DIIS extrapolation, IDIIS=  1040.
 Overlap will be assumed to be unity.
 NGot=   104857600 LenX=   104797283 LenY=   104796401
 Requested convergence on RMS density matrix=1.00D-08 within 128 cycles.
 Requested convergence on MAX density matrix=1.00D-06.
 Requested convergence on             energy=1.00D-06.
 No special actions if energy rises.

 Cycle   1  Pass 1  IDiag  1:
 E=-0.136074816415750E-01
 DIIS: error= 4.95D-02 at cycle   1 NSaved=   1.
 NSaved= 1 IEnMin= 1 EnMin=-0.136074816415750E-01 IErMin= 1 ErrMin= 4.95D-02
 ErrMax= 4.95D-02  0.00D+00 EMaxC= 1.00D-01 BMatC= 2.30D-02 BMatP= 2.30D-02
 IDIUse=3 WtCom= 5.05D-01 WtEn= 4.95D-01
 Coeff-Com:  0.100D+01
 Coeff-En:   0.100D+01
 Coeff:      0.100D+01
 GapD=    2.000 DampG=2.000 DampE=0.500 DampFc=1.0000 IDamp=-1.
 RMSDP=3.47D-02 MaxDP=1.24D-01              OVMax= 0.00D+00

 Cycle   2  Pass 1  IDiag  1:
 E=-0.718990589997794E-01 Delta-E=       -0.058291577358 Rises=F Damp=F
 DIIS: error= 1.46D-02 at cycle   2 NSaved=   2.
 NSaved= 2 IEnMin= 2 EnMin=-0.718990589997794E-01 IErMin= 2 ErrMin= 1.46D-02
 ErrMax= 1.46D-02  0.00D+00 EMaxC= 1.00D-01 BMatC= 2.73D-03 BMatP= 2.30D-02
 IDIUse=3 WtCom= 8.54D-01 WtEn= 1.46D-01
 Coeff-Com: -0.352D+00 0.135D+01
 Coeff-En:   0.000D+00 0.100D+01
 Coeff:     -0.301D+00 0.130D+01
 RMSDP=1.98D-02 MaxDP=5.03D-02 DE=-5.83D-02 OVMax= 0.00D+00

 Cycle   3  Pass 1  IDiag  3:
 E=-0.835694176424155E-01 Delta-E=       -0.011670358643 Rises=F Damp=F
 DIIS: error= 5.26D-03 at cycle   3 NSaved=   3.
 NSaved= 3 IEnMin= 3 EnMin=-0.835694176424155E-01 IErMin= 3 ErrMin= 5.26D-03
 ErrMax= 5.26D-03  0.00D+00 EMaxC= 1.00D-01 BMatC= 3.93D-04 BMatP= 2.73D-03
 IDIUse=3 WtCom= 9.47D-01 WtEn= 5.26D-02
 Coeff-Com:  0.277D+00-0.139D+01 0.212D+01
 Coeff-En:   0.000D+00 0.000D+00 0.100D+01
 Coeff:      0.263D+00-0.132D+01 0.206D+01
 Fock symm off for IB=4 I1=    1 I=    5 J=    3 Cut=1.00D-07 Err=3.93D-02
 Fock matrix is not symmetric: symmetry in diagonalization turned off.
 Gap=     0.579 Goal=   None    Shift=    0.000
 RMSDP=1.47D-02 MaxDP=4.40D-02 DE=-1.17D-02 OVMax= 5.99D-02

 Cycle   4  Pass 1  IDiag  3:
 E=-0.861411205406561E-01 Delta-E=       -0.002571702898 Rises=F Damp=F
 DIIS: error= 3.28D-04 at cycle   4 NSaved=   4.
 NSaved= 4 IEnMin= 4 EnMin=-0.861411205406561E-01 IErMin= 4 ErrMin= 3.28D-04
 ErrMax= 3.28D-04  0.00D+00 EMaxC= 1.00D-01 BMatC= 1.03D-06 BMatP= 3.93D-04
 IDIUse=3 WtCom= 9.97D-01 WtEn= 3.28D-03
 Coeff-Com: -0.222D-01 0.137D+00-0.272D+00 0.116D+01
 Coeff-En:   0.000D+00 0.000D+00 0.000D+00 0.100D+01
 Coeff:     -0.221D-01 0.137D+00-0.271D+00 0.116D+01
 Gap=     0.580 Goal=   None    Shift=    0.000
 RMSDP=6.71D-04 MaxDP=2.28D-03 DE=-2.57D-03 OVMax= 2.77D-03

 Cycle   5  Pass 1  IDiag  3:
 E=-0.861466767776840E-01 Delta-E=       -0.000005556237 Rises=F Damp=F
 DIIS: error= 1.47D-05 at cycle   5 NSaved=   5.
 NSaved= 5 IEnMin= 5 EnMin=-0.861466767776840E-01 IErMin= 5 ErrMin= 1.47D-05
 ErrMax= 1.47D-05  0.00D+00 EMaxC= 1.00D-01 BMatC= 2.85D-09 BMatP= 1.03D-06
 IDIUse=1 WtCom= 1.00D+00 WtEn= 0.00D+00
 Coeff-Com:  0.330D-02-0.260D-01 0.608D-01-0.398D+00 0.136D+01
 Coeff:      0.330D-02-0.260D-01 0.608D-01-0.398D+00 0.136D+01
 Gap=     0.580 Goal=   None    Shift=    0.000
 RMSDP=2.91D-05 MaxDP=8.78D-05 DE=-5.56D-06 OVMax= 1.11D-04

 Cycle   6  Pass 1  IDiag  3:
 E=-0.861466877909507E-01 Delta-E=       -0.000000011013 Rises=F Damp=F
 DIIS: error= 2.21D-06 at cycle   6 NSaved=   6.
 NSaved= 6 IEnMin= 6 EnMin=-0.861466877909507E-01 IErMin= 6 ErrMin= 2.21D-06
 ErrMax= 2.21D-06  0.00D+00 EMaxC= 1.00D-01 BMatC= 5.72D-11 BMatP= 2.85D-09
 IDIUse=1 WtCom= 1.00D+00 WtEn= 0.00D+00
 Large coefficients: NSaved=  6 BigCof=    0.00 CofMax=   10.00 Det= 2.33D-22
 Inversion failed.  Reducing to  5 matrices.
 Coeff-Com: -0.356D-04 0.711D-03-0.897D-02 0.988D-02 0.998D+00
 Coeff:     -0.356D-04 0.711D-03-0.897D-02 0.988D-02 0.998D+00
 Gap=     0.580 Goal=   None    Shift=    0.000
 RMSDP=4.05D-06 MaxDP=1.02D-05 DE=-1.10D-08 OVMax= 1.49D-05

 Cycle   7  Pass 1  IDiag  3:
 E=-0.861466880067532E-01 Delta-E=       -0.000000000216 Rises=F Damp=F
 DIIS: error= 7.03D-08 at cycle   7 NSaved=   6.
 NSaved= 6 IEnMin= 6 EnMin=-0.861466880067532E-01 IErMin= 6 ErrMin= 7.03D-08
 ErrMax= 7.03D-08  0.00D+00 EMaxC= 1.00D-01 BMatC= 6.66D-14 BMatP= 5.72D-11
 IDIUse=1 WtCom= 1.00D+00 WtEn= 0.00D+00
 Large coefficients: NSaved=  6 BigCof=    0.00 CofMax=   10.00 Det=-2.79D-27
 Inversion failed.  Reducing to  5 matrices.
 Coeff-Com: -0.264D-06-0.355D-04 0.589D-03 0.316D-01 0.968D+00
 Coeff:     -0.264D-06-0.355D-04 0.589D-03 0.316D-01 0.968D+00
 Gap=     0.580 Goal=   None    Shift=    0.000
 RMSDP=1.45D-07 MaxDP=3.75D-07 DE=-2.16D-10 OVMax= 5.37D-07

 Cycle   8  Pass 1  IDiag  3:
 E=-0.861466880070267E-01 Delta-E=       -0.000000000000 Rises=F Damp=F
 DIIS: error= 1.28D-09 at cycle   8 NSaved=   6.
 NSaved= 6 IEnMin= 6 EnMin=-0.861466880070267E-01 IErMin= 6 ErrMin= 1.28D-09
 ErrMax= 1.28D-09  0.00D+00 EMaxC= 1.00D-01 BMatC= 1.72D-17 BMatP= 6.66D-14
 IDIUse=1 WtCom= 1.00D+00 WtEn= 0.00D+00
 Large coefficients: NSaved=  6 BigCof=    0.00 CofMax=   10.00 Det=-2.56D-29
 Inversion failed.  Reducing to  5 matrices.
 Coeff-Com: -0.125D-06-0.118D-04-0.211D-02-0.471D-01 0.105D+01
 Coeff:     -0.125D-06-0.118D-04-0.211D-02-0.471D-01 0.105D+01
 Gap=     0.580 Goal=   None    Shift=    0.000
 RMSDP=1.33D-09 MaxDP=3.55D-09 DE=-2.74D-13 OVMax= 4.27D-09

 Cycle   9  Pass 2  IDiag  1:
 SCF Done:  E(RPM6) = -0.861466880070E-01 A.U. after    9 cycles
            NFock=  8  Conv=0.13D-08     -V/T= 0.9957
 KE=-2.018300626283D+01 PE=-7.915065646345D+00 EE= 1.129528374430D+01
 Leave Link  502 at Fri Sep  6 10:36:06 2024, MaxMem=   104857600 cpu:               0.0 elap:               0.0
 (Enter /Users/asuyarger/Applications/G16/g16/l601.exe)
 Copying SCF densities to generalized density rwf, IOpCl= 0 IROHF=0.

 **********************************************************************

            Population analysis using the SCF density.

 **********************************************************************

 Orbital symmetries:
       Occupied  (A1) (B2) (A1) (B1)
       Virtual   (A1) (B2)
 The electronic state is 1-A1.
 Alpha  occ. eigenvalues --   -1.10527  -0.69731  -0.51529  -0.43589
 Alpha virt. eigenvalues --    0.14452   0.22149
     Molecular Orbital Coefficients:
                           1         2         3         4         5
                        (A1)--O   (B2)--O   (A1)--O   (B1)--O   (A1)--V
     Eigenvalues --    -1.10527  -0.69731  -0.51529  -0.43589   0.14452
   1 1   O  1S          0.83483  -0.00000   0.43076  -0.00000  -0.34279
   2        1PX         0.00000   0.00000   0.00000   1.00000  -0.00000
   3        1PY        -0.00000   0.81202   0.00000  -0.00000  -0.00000
   4        1PZ        -0.23985  -0.00000   0.84509  -0.00000   0.47781
   5 2   H  1S          0.35038  -0.41269  -0.22392   0.00000   0.57192
   6 3   H  1S          0.35038   0.41269  -0.22392   0.00000   0.57192
                           6
                        (B2)--V
     Eigenvalues --     0.22149
   1 1   O  1S         -0.00000
   2        1PX        -0.00000
   3        1PY         0.58363
   4        1PZ         0.00000
   5 2   H  1S          0.57418
   6 3   H  1S         -0.57418
     Density Matrix:
                           1         2         3         4         5
   1 1   O  1S          1.76498
   2        1PX        -0.00000   2.00000
   3        1PY        -0.00000   0.00000   1.31874
   4        1PZ         0.32758   0.00000   0.00000   1.54340
   5 2   H  1S          0.39210   0.00000  -0.67023  -0.54654   0.68644
   6 3   H  1S          0.39210   0.00000   0.67023  -0.54654   0.00518
                           6
   6 3   H  1S          0.68644
    Full Mulliken population analysis:
                           1         2         3         4         5
   1 1   O  1S          1.76498
   2        1PX         0.00000   2.00000
   3        1PY         0.00000   0.00000   1.31874
   4        1PZ         0.00000   0.00000   0.00000   1.54340
   5 2   H  1S          0.00000   0.00000   0.00000   0.00000   0.68644
   6 3   H  1S          0.00000   0.00000   0.00000   0.00000   0.00000
                           6
   6 3   H  1S          0.68644
     Gross orbital populations:
                           1
   1 1   O  1S          1.76498
   2        1PX         2.00000
   3        1PY         1.31874
   4        1PZ         1.54340
   5 2   H  1S          0.68644
   6 3   H  1S          0.68644
          Condensed to atoms (all electrons):
               1          2          3
     1  O    6.627121   0.000000   0.000000
     2  H    0.000000   0.686440   0.000000
     3  H    0.000000   0.000000   0.686440
 Mulliken charges:
               1
     1  O   -0.627121
     2  H    0.313560
     3  H    0.313560
 Sum of Mulliken charges =  -0.00000
 Mulliken charges with hydrogens summed into heavy atoms:
               1
     1  O   -0.000000
 Charge=             -0.0000 electrons
 Dipole moment (field-independent basis, Debye):
    X=              0.0000    Y=             -0.0000    Z=             -2.0644  Tot=              2.0644
 N-N= 1.671664147687D+01 E-N=-7.915065642420D+00  KE=-2.018300626283D+01
 Symmetry A1   KE=-1.088355055750D+01
 Symmetry A2   KE= 0.000000000000D+00
 Symmetry B1   KE=-5.178784462185D+00
 Symmetry B2   KE=-4.120671243142D+00
 StAtR1:  DoIntr=F IAtCor=3 NETot=       8 Failed=F Sum=  2.00D+00 SumC=  0.00D+00
 There are a total of       67328 grid points.
 ElSum from          density=        8.4321142069
 ElSum from atomic densities=       10.0000000262

 Hirshfeld populations at iteration   1 (CX, CA, CB, DipXYZ):
               1          2          3          4          5          6
     1  O    0.000005   3.691070   3.691070   0.000000   0.000000   0.031796
     2  H    0.000018   0.262494   0.262494  -0.000000   0.151304   0.161488
     3  H    0.000018   0.262494   0.262494   0.000000  -0.151304   0.161488
       Tot   0.000041   4.216057   4.216057   0.000000   0.000000   0.354772

 Dip from Atomic Chgs              0.000000   0.000000  -1.085568
         Total Dipole              0.000000   0.000000  -0.730796

 Hirshfeld charges, spin densities, dipoles, and CM5 charges using IRadAn=      5:
              Q-H        S-H        Dx         Dy         Dz        Q-CM5   
     1  O   -1.382140   0.000000   0.000000   0.000000   0.031796  -1.716340
     2  H    0.475013   0.000000  -0.000000   0.151304   0.161488   0.642113
     3  H    0.475013   0.000000   0.000000  -0.151304   0.161488   0.642113
       Tot  -0.432114   0.000000   0.000000   0.000000   0.354772  -0.432114
 Hirshfeld charges with hydrogens summed into heavy atoms:
              Q-H       Q-CM5   
     1  O   -0.432114  -0.432114
 
 EQQ= 0.000000000000E+00 EQD= 0.000000000000E+00 EDD= 0.184255633901E-02
 EQQ+QD+DD= 0.184255633901E-02
 
 Orbital energies and kinetic energies (alpha):
                                 1                 2
   1         (A1)--O          -1.105269         -2.907978
   2         (B2)--O          -0.697306         -2.060336
   3         (A1)--O          -0.515290         -2.533797
   4         (B1)--O          -0.435887         -2.589392
   5         (A1)--V           0.144521         -0.997844
   6         (B2)--V           0.221493         -0.874598
 Total kinetic energy from orbitals=-2.018300626283D+01
 Leave Link  601 at Fri Sep  6 10:36:06 2024, MaxMem=   104857600 cpu:               0.1 elap:               0.1
 (Enter /Users/asuyarger/Applications/G16/g16/l607.exe)
 ******************************Gaussian NBO Version 3.1******************************
             N A T U R A L   A T O M I C   O R B I T A L   A N D
          N A T U R A L   B O N D   O R B I T A L   A N A L Y S I S
 ******************************Gaussian NBO Version 3.1******************************
       /RESON  / : Allow strongly delocalized NBO set

 Analyzing the SCF density

 Job title: H2O PM6 Opt Freq - Full - NBO                                   

 Storage needed:       144 in NPA,       176 in NBO ( 104857537 available)


 NATURAL POPULATIONS:  Natural atomic orbital occupancies 
                                                          
   NAO  Atom  No  lang   Type(AO)    Occupancy      Energy
 ----------------------------------------------------------
     1    O    1  S      Val( 2S)     1.76498      -0.84894
     2    O    1  px     Val( 2p)     2.00000      -0.43589
     3    O    1  py     Val( 2p)     1.31874      -0.38434
     4    O    1  pz     Val( 2p)     1.54340      -0.39859

     5    H    2  S      Val( 1S)     0.68644      -0.15999

     6    H    3  S      Val( 1S)     0.68644      -0.15999

 [  2 electrons found in the effective core potential]


 Summary of Natural Population Analysis:                  
                                                          
                                       Natural Population 
                Natural  -----------------------------------------------
    Atom  No    Charge         Core      Valence    Rydberg      Total
 -----------------------------------------------------------------------
      O    1   -0.62712      2.00000     6.62712    0.00000     8.62712
      H    2    0.31356      0.00000     0.68644    0.00000     0.68644
      H    3    0.31356      0.00000     0.68644    0.00000     0.68644
 =======================================================================
   * Total *   -0.00000      2.00000     8.00000    0.00000    10.00000

                                 Natural Population      
 --------------------------------------------------------
   Effective Core             2.00000
   Valence                    8.00000 (100.0000% of   8)
   Natural Minimal Basis     10.00000 (100.0000% of  10)
   Natural Rydberg Basis      0.00000 (  0.0000% of  10)
 --------------------------------------------------------

    Atom  No          Natural Electron Configuration
 ----------------------------------------------------------------------------
      O    1      [core]2S( 1.76)2p( 4.86)
      H    2            1S( 0.69)
      H    3            1S( 0.69)


 NATURAL BOND ORBITAL ANALYSIS:

                       Occupancies       Lewis Structure    Low   High
           Occ.    -------------------  -----------------   occ   occ
  Cycle   Thresh.   Lewis   Non-Lewis     CR  BD  3C  LP    (L)   (NL)   Dev
 =============================================================================
   1(1)    1.90     9.99997   0.00003      0   2   0   2     0      0    0.00
 -----------------------------------------------------------------------------

 Structure accepted: No low occupancy Lewis orbitals

           --- Apparent excited state configuration ---
 The following "inverted" NBO labels reflect the actual hybrid overlap:

                 NBO   5 has been relabelled BD 

                 NBO   6 has been relabelled BD 

                 NBO   4 has been relabelled LP*

                 NBO   3 has been relabelled LP*

 --------------------------------------------------------
   Effective Core            2.00000
   Valence Lewis             4.00000 ( 50.000% of   8)
  ==================       ============================
   Total Lewis               6.00000 ( 60.000% of  10)
  -----------------------------------------------------
   Valence non-Lewis         4.00000 ( 40.000% of  10)
   Rydberg non-Lewis         0.00000 (  0.000% of  10)
  ==================       ============================
   Total non-Lewis           4.00000 ( 40.000% of  10)
 --------------------------------------------------------


       (Occupancy)   Bond orbital/ Coefficients/ Hybrids
 ---------------------------------------------------------------------------------
     1. (1.99999) BD ( 1) O   1 - H   2  
                ( 65.68%)   0.8104* O   1 s( 16.99%)p 4.89( 83.01%)
                                           -0.4122  0.0000  0.7071  0.5745
                ( 34.32%)   0.5858* H   2 s(100.00%)
                                           -1.0000
     2. (1.99999) BD ( 1) O   1 - H   3  
                ( 65.68%)   0.8104* O   1 s( 16.99%)p 4.89( 83.01%)
                                            0.4122  0.0000  0.7071 -0.5745
                ( 34.32%)   0.5858* H   3 s(100.00%)
                                            1.0000
     3. (2.00000) LP*( 1) O   1           s( 66.02%)p 0.51( 33.98%)
                                            0.8125  0.0000  0.0000  0.5829
     4. (2.00000) LP*( 2) O   1           s(  0.00%)p 1.00(100.00%)
                                            0.0000  1.0000  0.0000  0.0000
     5. (0.00001) BD ( 1) O   1 - H   2  
                ( 34.32%)   0.5858* O   1 s( 16.99%)p 4.89( 83.01%)
                ( 65.68%)   0.8104* H   2 s(100.00%)
     6. (0.00001) BD ( 1) O   1 - H   3  
                ( 34.32%)   0.5858* O   1 s( 16.99%)p 4.89( 83.01%)
                ( 65.68%)   0.8104* H   3 s(100.00%)


 NHO Directionality and "Bond Bending" (deviations from line of nuclear centers)

         [Thresholds for printing:  angular deviation  >  1.0 degree]
                                    hybrid p-character > 25.0%
                                    orbital occupancy  >  0.10e

                                Line of Centers        Hybrid 1              Hybrid 2
                                ---------------  -------------------   ------------------
                NBO               Theta   Phi    Theta   Phi    Dev    Theta   Phi    Dev
 ========================================================================================
     1. BD (   1) O   1 - H   2   125.3  270.0   129.1  270.0   3.8      --     --    --
     2. BD (   1) O   1 - H   3   125.3   90.0   129.1   90.0   3.8      --     --    --
     3. LP*(   1) O   1             --     --      0.0    0.0   --       --     --    --
     4. LP*(   2) O   1             --     --     90.0    0.0   --       --     --    --


 Second Order Perturbation Theory Analysis of Fock Matrix in NBO Basis

     Threshold for printing:   0.50 kcal/mol
                                                                              E(2)  E(j)-E(i) F(i,j)
         Donor NBO (i)                     Acceptor NBO (j)                 kcal/mol   a.u.    a.u. 
 ===================================================================================================

 within unit  1
       None above threshold


 Natural Bond Orbitals (Summary):

                                                            Principal Delocalizations
           NBO                        Occupancy    Energy   (geminal,vicinal,remote)
 ====================================================================================
 Molecular unit  1  (H2O)
     1. BD (   1) O   1 - H   2          1.99999    -0.81574  3(g)
     2. BD (   1) O   1 - H   3          1.99999    -0.81574  3(g)
     3. LP*(   1) O   1                  2.00000    -0.68637   
     4. LP*(   2) O   1                  2.00000    -0.43589   
     5. BD (   1) O   1 - H   2          0.00001     0.18300   
     6. BD (   1) O   1 - H   3          0.00001     0.18300   
       -------------------------------
              Total Lewis    6.00000  ( 60.0000%)
        Valence non-Lewis    4.00000  ( 40.0000%)
        Rydberg non-Lewis    0.00000  (  0.0000%)
       -------------------------------
            Total unit  1   10.00000  (100.0000%)
           Charge unit  1    0.00000
 Leave Link  607 at Fri Sep  6 10:36:06 2024, MaxMem=   104857600 cpu:               0.2 elap:               0.2
 (Enter /Users/asuyarger/Applications/G16/g16/l701.exe)
 ... and contract with generalized density number  0.
 Compute integral first derivatives.
 Leave Link  701 at Fri Sep  6 10:36:06 2024, MaxMem=   104857600 cpu:               0.0 elap:               0.0
 (Enter /Users/asuyarger/Applications/G16/g16/l702.exe)
 L702 exits ... SP integral derivatives will be done elsewhere.
 Leave Link  702 at Fri Sep  6 10:36:06 2024, MaxMem=   104857600 cpu:               0.0 elap:               0.0
 (Enter /Users/asuyarger/Applications/G16/g16/l703.exe)
 Integral derivatives from FoFJK, PRISM(SPDF).
 Compute integral first derivatives, UseDBF=F ICtDFT=           0.
 Calling FoFJK, ICntrl=      2127 FMM=F ISym2X=1 I1Cent= 0 IOpClX= 0 NMat=1 NMatS=1 NMatT=0.
 FoFJK:  IHMeth=40 ICntrl=    2127 DoSepK=F KAlg= 0 I1Cent=           0 FoldK=F
 IRaf=         0 NMat=       1 IRICut=       1 DoRegI=T DoRafI=F ISym2E= 1 IDoP0=3 IntGTp=3.
 FoFCou: FMM=F IPFlag=           0 FMFlag=      100000 FMFlg1=         800
         NFxFlg=           0 DoJE=F BraDBF=F KetDBF=F FulRan=T
         wScrn=  0.000000 ICntrl=      2127 IOpCl=  0 I1Cent=           0 NGrid=           0
         NMat0=    1 NMatS0=      1 NMatT0=    0 NMatD0=    1 NMtDS0=    0 NMtDT0=    0
 Petite list used in FoFCou.
 Leave Link  703 at Fri Sep  6 10:36:06 2024, MaxMem=   104857600 cpu:               0.0 elap:               0.0
 (Enter /Users/asuyarger/Applications/G16/g16/l716.exe)
 Dipole        = 5.86626680D-17-2.88657986D-15-8.12180211D-01
 ***** Axes restored to original set *****
 -------------------------------------------------------------------
 Center     Atomic                   Forces (Hartrees/Bohr)
 Number     Number              X              Y              Z
 -------------------------------------------------------------------
      1        8           0.000781112    0.001105248    0.000000000
      2        1          -0.006686729    0.003897071   -0.000000000
      3        1           0.005905617   -0.005002319   -0.000000000
 -------------------------------------------------------------------
 Cartesian Forces:  Max     0.006686729 RMS     0.003676211
 Leave Link  716 at Fri Sep  6 10:36:06 2024, MaxMem=   104857600 cpu:               0.0 elap:               0.0
 (Enter /Users/asuyarger/Applications/G16/g16/l103.exe)

 GradGradGradGradGradGradGradGradGradGradGradGradGradGradGradGradGradGrad
 Berny optimization.
 FormGI is forming the generalized inverse of G from B-inverse, IUseBI=4.
 Internal  Forces:  Max     0.007072867 RMS     0.006817232
 Search for a local minimum.
 Step number   1 out of a maximum of   20
 All quantities printed in internal units (Hartrees-Bohrs-Radians)
 RMS Force = .68172D-02 SwitMx=.10000D-02 MixMth= 1
 Mixed Optimization -- RFO/linear search
 Second derivative matrix not updated -- first step.
 The second derivative matrix:
                          R1        R2        A1
           R1           0.55473
           R2           0.00000   0.55473
           A1           0.00000   0.00000   0.16000
 ITU=  0
     Eigenvalues ---    0.16000   0.55473   0.55473
 RFO step:  Lambda=-4.72753976D-04 EMin= 1.60000000D-01
 Linear search not attempted -- first point.
 Iteration  1 RMS(Cart)=  0.02944467 RMS(Int)=  0.00039665
 Iteration  2 RMS(Cart)=  0.00028570 RMS(Int)=  0.00000004
 Iteration  3 RMS(Cart)=  0.00000004 RMS(Int)=  0.00000000
 ITry= 1 IFail=0 DXMaxC= 3.19D-02 DCOld= 1.00D+10 DXMaxT= 3.00D-01 DXLimC= 3.00D+00 Rises=F
 ClnCor:  largest displacement from symmetrization is 9.16D-16 for atom     2.
 Variable       Old X    -DE/DX   Delta X   Delta X   Delta X     New X
                                 (Linear)    (Quad)   (Total)
    R1        1.81414  -0.00669   0.00000  -0.01204  -0.01204   1.80210
    R2        1.81414  -0.00669   0.00000  -0.01204  -0.01204   1.80210
    A1        1.91063  -0.00707   0.00000  -0.04408  -0.04408   1.86656
         Item               Value     Threshold  Converged?
 Maximum Force            0.007073     0.000015     NO 
 RMS     Force            0.006817     0.000010     NO 
 Maximum Displacement     0.031896     0.000060     NO 
 RMS     Displacement     0.029537     0.000040     NO 
 Predicted change in Energy=-2.369059D-04
 Lowest energy point so far.  Saving SCF results.
 GradGradGradGradGradGradGradGradGradGradGradGradGradGradGradGradGradGrad

 Leave Link  103 at Fri Sep  6 10:36:06 2024, MaxMem=   104857600 cpu:               0.0 elap:               0.0
 (Enter /Users/asuyarger/Applications/G16/g16/l202.exe)
                          Input orientation:                          
 ---------------------------------------------------------------------
 Center     Atomic      Atomic             Coordinates (Angstroms)
 Number     Number       Type             X           Y           Z
 ---------------------------------------------------------------------
      1          8           0       -0.321639    0.435665    0.004142
      2          1           0        0.631752    0.456919    0.004142
      3          1           0       -0.619853    1.341466    0.004142
 ---------------------------------------------------------------------
                    Distance matrix (angstroms):
                    1          2          3
     1  O    0.000000
     2  H    0.953628   0.000000
     3  H    0.953628   1.532625   0.000000
 Stoichiometry    H2O
 Framework group  C2V[C2(O),SGV(H2)]
 Deg. of freedom     2
 Full point group                 C2V     NOp   4
 RotChk:  IX=3 Diff= 7.44D-16
 Largest Abelian subgroup         C2V     NOp   4
 Largest concise Abelian subgroup C2      NOp   2
                         Standard orientation:                         
 ---------------------------------------------------------------------
 Center     Atomic      Atomic             Coordinates (Angstroms)
 Number     Number       Type             X           Y           Z
 ---------------------------------------------------------------------
      1          8           0       -0.000000   -0.000000    0.113520
      2          1           0        0.000000   -0.766312   -0.454081
      3          1           0        0.000000    0.766312   -0.454081
 ---------------------------------------------------------------------
 Rotational constants (GHZ):         876.3157578         426.9632604         287.0871301
 Leave Link  202 at Fri Sep  6 10:36:06 2024, MaxMem=   104857600 cpu:               0.0 elap:               0.0
 (Enter /Users/asuyarger/Applications/G16/g16/l301.exe)
 Standard basis: VSTO-6G (5D, 7F)
 Ernie: Thresh=  0.10000D-02 Tol=  0.10000D-05 Strict=F.
  NNHCO=     0 NNPyr=     0 NCTC=     0               EPep=         0.000000000
    EC=         4.572517524  ECS=         0.528923123   EG=         0.001756911
   EHC=         0.000690165  EAt=       -11.378367313  AtH=         0.260972952
 EPDDG=         0.000000000  ECC=         5.103887723 EAtT=        11.639340265
 There are     3 symmetry adapted cartesian basis functions of A1  symmetry.
 There are     0 symmetry adapted cartesian basis functions of A2  symmetry.
 There are     1 symmetry adapted cartesian basis functions of B1  symmetry.
 There are     2 symmetry adapted cartesian basis functions of B2  symmetry.
 There are     3 symmetry adapted basis functions of A1  symmetry.
 There are     0 symmetry adapted basis functions of A2  symmetry.
 There are     1 symmetry adapted basis functions of B1  symmetry.
 There are     2 symmetry adapted basis functions of B2  symmetry.
     6 basis functions,    36 primitive gaussians,     6 cartesian basis functions
     4 alpha electrons        4 beta electrons
       nuclear repulsion energy        16.7432279882 Hartrees.
 IExCor=    0 DFT=F Ex=HF Corr=None ExCW=0 ScaHFX=  1.000000
 ScaDFX=  1.000000  1.000000  1.000000  1.000000 ScalE2=  1.000000  1.000000
 IRadAn=      5 IRanWt=     -1 IRanGd=            0 ICorTp=0 IEmpDi=  4
 Integral buffers will be    131072 words long.
 Regular integral format.
 Two-electron integral symmetry is turned off.
 Leave Link  301 at Fri Sep  6 10:36:06 2024, MaxMem=   104857600 cpu:               0.0 elap:               0.0
 (Enter /Users/asuyarger/Applications/G16/g16/l302.exe)
 Do NDO integrals.
 NPDir=0 NMtPBC=     1 NCelOv=     1 NCel=       1 NClECP=     1 NCelD=      1
         NCelK=      1 NCelE2=     1 NClLst=     1 CellRange=     0.0.
 One-electron integrals computed using PRISM.
 NBasis=     6 RedAO= T EigKep=  1.00D+00  NBF=     3     0     1     2
 NBsUse=     6 1.00D-06 EigRej= -1.00D+00 NBFU=     3     0     1     2
 Leave Link  302 at Fri Sep  6 10:36:06 2024, MaxMem=   104857600 cpu:               0.0 elap:               0.0
 (Enter /Users/asuyarger/Applications/G16/g16/l303.exe)
 DipDrv:  MaxL=1.
 Leave Link  303 at Fri Sep  6 10:36:06 2024, MaxMem=   104857600 cpu:               0.0 elap:               0.0
 (Enter /Users/asuyarger/Applications/G16/g16/l401.exe)
 Initial guess from the checkpoint file:  "H2O_PM6_Opt_Freq_Full_NBO.chk"
 B after Tr=    -0.000000    0.000000    0.000000
         Rot=    1.000000   -0.000000   -0.000000   -0.000000 Ang=   0.00 deg.
 Guess basis will be translated and rotated to current coordinates.
 JPrj=0 DoOrth=T DoCkMO=T.
 Initial guess orbital symmetries:
       Occupied  (A1) (B2) (A1) (B1)
       Virtual   (A1) (B2)
 The electronic state of the initial guess is 1-A1.
 Leave Link  401 at Fri Sep  6 10:36:06 2024, MaxMem=   104857600 cpu:               0.0 elap:               0.0
 (Enter /Users/asuyarger/Applications/G16/g16/l502.exe)
 Keep J ints in memory in canonical form, NReq=859134.
 FoFCou: FMM=F IPFlag=           0 FMFlag=           0 FMFlg1=           0
         NFxFlg=           0 DoJE=F BraDBF=F KetDBF=F FulRan=T
         wScrn=  0.000000 ICntrl=       600 IOpCl=  2 I1Cent=           0 NGrid=           0
         NMat0=    1 NMatS0=     12 NMatT0=    0 NMatD0=    1 NMtDS0=    0 NMtDT0=    0
 Symmetry not used in FoFCou.
 Two-electron integral symmetry not used.
 Closed shell SCF:
 Using DIIS extrapolation, IDIIS=  1040.
 Overlap will be assumed to be unity.
 NGot=   104857600 LenX=   104797283 LenY=   104796401
 Requested convergence on RMS density matrix=1.00D-08 within 128 cycles.
 Requested convergence on MAX density matrix=1.00D-06.
 Requested convergence on             energy=1.00D-06.
 No special actions if energy rises.

 Cycle   1  Pass 1  IDiag  1:
 E=-0.863131306509075E-01
 DIIS: error= 1.46D-03 at cycle   1 NSaved=   1.
 NSaved= 1 IEnMin= 1 EnMin=-0.863131306509075E-01 IErMin= 1 ErrMin= 1.46D-03
 ErrMax= 1.46D-03  0.00D+00 EMaxC= 1.00D-01 BMatC= 2.60D-05 BMatP= 2.60D-05
 IDIUse=3 WtCom= 9.85D-01 WtEn= 1.46D-02
 Coeff-Com:  0.100D+01
 Coeff-En:   0.100D+01
 Coeff:      0.100D+01
 GapD=    2.000 DampG=2.000 DampE=1.000 DampFc=2.0000 IDamp=-1.
 RMSDP=1.32D-03 MaxDP=4.28D-03              OVMax= 0.00D+00

 Cycle   2  Pass 1  IDiag  3:
 E=-0.863831497901693E-01 Delta-E=       -0.000070019139 Rises=F Damp=F
 DIIS: error= 4.47D-04 at cycle   2 NSaved=   2.
 NSaved= 2 IEnMin= 2 EnMin=-0.863831497901693E-01 IErMin= 2 ErrMin= 4.47D-04
 ErrMax= 4.47D-04  0.00D+00 EMaxC= 1.00D-01 BMatC= 1.96D-06 BMatP= 2.60D-05
 IDIUse=3 WtCom= 9.96D-01 WtEn= 4.47D-03
 Coeff-Com: -0.278D+00 0.128D+01
 Coeff-En:   0.000D+00 0.100D+01
 Coeff:     -0.276D+00 0.128D+01
 Fock symm off for IB=4 I1=    1 I=    5 J=    3 Cut=1.00D-07 Err=1.59D-03
 Fock matrix is not symmetric: symmetry in diagonalization turned off.
 Gap=     0.585 Goal=   None    Shift=    0.000
 RMSDP=5.86D-04 MaxDP=2.06D-03 DE=-7.00D-05 OVMax= 2.38D-03

 Cycle   3  Pass 1  IDiag  3:
 E=-0.863917794443196E-01 Delta-E=       -0.000008629654 Rises=F Damp=F
 DIIS: error= 1.30D-04 at cycle   3 NSaved=   3.
 NSaved= 3 IEnMin= 3 EnMin=-0.863917794443196E-01 IErMin= 3 ErrMin= 1.30D-04
 ErrMax= 1.30D-04  0.00D+00 EMaxC= 1.00D-01 BMatC= 2.04D-07 BMatP= 1.96D-06
 IDIUse=3 WtCom= 9.99D-01 WtEn= 1.30D-03
 Coeff-Com:  0.245D+00-0.119D+01 0.194D+01
 Coeff-En:   0.000D+00 0.000D+00 0.100D+01
 Coeff:      0.244D+00-0.119D+01 0.194D+01
 Gap=     0.585 Goal=   None    Shift=    0.000
 RMSDP=3.02D-04 MaxDP=9.67D-04 DE=-8.63D-06 OVMax= 1.26D-03

 Cycle   4  Pass 1  IDiag  3:
 E=-0.863930287885744E-01 Delta-E=       -0.000001249344 Rises=F Damp=F
 DIIS: error= 1.81D-05 at cycle   4 NSaved=   4.
 NSaved= 4 IEnMin= 4 EnMin=-0.863930287885744E-01 IErMin= 4 ErrMin= 1.81D-05
 ErrMax= 1.81D-05  0.00D+00 EMaxC= 1.00D-01 BMatC= 4.12D-09 BMatP= 2.04D-07
 IDIUse=1 WtCom= 1.00D+00 WtEn= 0.00D+00
 Coeff-Com: -0.108D+00 0.534D+00-0.961D+00 0.153D+01
 Coeff:     -0.108D+00 0.534D+00-0.961D+00 0.153D+01
 Gap=     0.585 Goal=   None    Shift=    0.000
 RMSDP=3.84D-05 MaxDP=1.05D-04 DE=-1.25D-06 OVMax= 1.34D-04

 Cycle   5  Pass 1  IDiag  3:
 E=-0.863930485891835E-01 Delta-E=       -0.000000019801 Rises=F Damp=F
 DIIS: error= 8.22D-08 at cycle   5 NSaved=   5.
 NSaved= 5 IEnMin= 5 EnMin=-0.863930485891835E-01 IErMin= 5 ErrMin= 8.22D-08
 ErrMax= 8.22D-08  0.00D+00 EMaxC= 1.00D-01 BMatC= 7.94D-14 BMatP= 4.12D-09
 IDIUse=1 WtCom= 1.00D+00 WtEn= 0.00D+00
 Coeff-Com: -0.358D-04 0.397D-03-0.122D-02 0.111D-02 0.100D+01
 Coeff:     -0.358D-04 0.397D-03-0.122D-02 0.111D-02 0.100D+01
 Gap=     0.585 Goal=   None    Shift=    0.000
 RMSDP=1.14D-07 MaxDP=2.63D-07 DE=-1.98D-08 OVMax= 3.48D-07

 Cycle   6  Pass 1  IDiag  3:
 E=-0.863930485894109E-01 Delta-E=       -0.000000000000 Rises=F Damp=F
 DIIS: error= 8.79D-12 at cycle   6 NSaved=   6.
 NSaved= 6 IEnMin= 6 EnMin=-0.863930485894109E-01 IErMin= 6 ErrMin= 8.79D-12
 ErrMax= 8.79D-12  0.00D+00 EMaxC= 1.00D-01 BMatC= 9.30D-22 BMatP= 7.94D-14
 IDIUse=1 WtCom= 1.00D+00 WtEn= 0.00D+00
 Large coefficients: NSaved=  6 BigCof=    0.00 CofMax=   10.00 Det=-1.50D-28
 Inversion failed.  Reducing to  5 matrices.
 Coeff-Com:  0.502D-08 0.743D-07-0.192D-06-0.757D-04 0.100D+01
 Coeff:      0.502D-08 0.743D-07-0.192D-06-0.757D-04 0.100D+01
 Gap=     0.585 Goal=   None    Shift=    0.000
 RMSDP=1.72D-11 MaxDP=5.88D-11 DE=-2.27D-13 OVMax= 7.00D-11

 Cycle   7  Pass 2  IDiag  1:
 SCF Done:  E(RPM6) = -0.863930485894E-01 A.U. after    7 cycles
            NFock=  6  Conv=0.17D-10     -V/T= 0.9957
 KE=-2.017322406869D+01 PE=-7.956887632315D+00 EE= 1.130049066422D+01
 Leave Link  502 at Fri Sep  6 10:36:06 2024, MaxMem=   104857600 cpu:               0.0 elap:               0.0
 (Enter /Users/asuyarger/Applications/G16/g16/l701.exe)
 ... and contract with generalized density number  0.
 Compute integral first derivatives.
 Leave Link  701 at Fri Sep  6 10:36:06 2024, MaxMem=   104857600 cpu:               0.0 elap:               0.0
 (Enter /Users/asuyarger/Applications/G16/g16/l702.exe)
 L702 exits ... SP integral derivatives will be done elsewhere.
 Leave Link  702 at Fri Sep  6 10:36:06 2024, MaxMem=   104857600 cpu:               0.0 elap:               0.0
 (Enter /Users/asuyarger/Applications/G16/g16/l703.exe)
 Integral derivatives from FoFJK, PRISM(SPDF).
 Compute integral first derivatives, UseDBF=F ICtDFT=           0.
 Calling FoFJK, ICntrl=      2127 FMM=F ISym2X=1 I1Cent= 0 IOpClX= 0 NMat=1 NMatS=1 NMatT=0.
 FoFJK:  IHMeth=40 ICntrl=    2127 DoSepK=F KAlg= 0 I1Cent=           0 FoldK=F
 IRaf=         0 NMat=       1 IRICut=       1 DoRegI=T DoRafI=F ISym2E= 1 IDoP0=3 IntGTp=3.
 FoFCou: FMM=F IPFlag=           0 FMFlag=      100000 FMFlg1=         800
         NFxFlg=           0 DoJE=F BraDBF=F KetDBF=F FulRan=T
         wScrn=  0.000000 ICntrl=      2127 IOpCl=  0 I1Cent=           0 NGrid=           0
         NMat0=    1 NMatS0=      1 NMatT0=    0 NMatD0=    1 NMtDS0=    0 NMtDT0=    0
 Petite list used in FoFCou.
 Leave Link  703 at Fri Sep  6 10:36:06 2024, MaxMem=   104857600 cpu:               0.0 elap:               0.0
 (Enter /Users/asuyarger/Applications/G16/g16/l716.exe)
 Dipole        = 6.44187898D-17-8.88178420D-16-8.19375406D-01
 ***** Axes restored to original set *****
 -------------------------------------------------------------------
 Center     Atomic                   Forces (Hartrees/Bohr)
 Number     Number              X              Y              Z
 -------------------------------------------------------------------
      1        8           0.001169631    0.001654989    0.000000000
      2        1          -0.001389361   -0.000258898   -0.000000000
      3        1           0.000219730   -0.001396091   -0.000000000
 -------------------------------------------------------------------
 Cartesian Forces:  Max     0.001654989 RMS     0.000948784
 Leave Link  716 at Fri Sep  6 10:36:06 2024, MaxMem=   104857600 cpu:               0.0 elap:               0.0
 (Enter /Users/asuyarger/Applications/G16/g16/l103.exe)

 GradGradGradGradGradGradGradGradGradGradGradGradGradGradGradGradGradGrad
 Berny optimization.
 Using GEDIIS/GDIIS optimizer.
 FormGI is forming the generalized inverse of G from B-inverse, IUseBI=4.
 Internal  Forces:  Max     0.001394786 RMS     0.001163254
 Search for a local minimum.
 Step number   2 out of a maximum of   20
 All quantities printed in internal units (Hartrees-Bohrs-Radians)
 RMS Force = .11633D-02 SwitMx=.10000D-02 MixMth= 1
 Mixed Optimization -- RFO/linear search
 Update second derivatives using D2CorX and points    1    2
 DE= -2.46D-04 DEPred=-2.37D-04 R= 1.04D+00
 TightC=F SS=  1.41D+00  RLast= 4.73D-02 DXNew= 5.0454D-01 1.4175D-01
 Trust test= 1.04D+00 RLast= 4.73D-02 DXMaxT set to 3.00D-01
 The second derivative matrix:
                          R1        R2        A1
           R1           0.52135
           R2          -0.03338   0.52135
           A1          -0.01328  -0.01328   0.17704
 ITU=  1  0
 Use linear search instead of GDIIS.
     Eigenvalues ---    0.17591   0.48911   0.55473
 RFO step:  Lambda=-8.12172468D-06 EMin= 1.75914806D-01
 Quartic linear search produced a step of  0.03288.
 Iteration  1 RMS(Cart)=  0.00175293 RMS(Int)=  0.00000188
 Iteration  2 RMS(Cart)=  0.00000207 RMS(Int)=  0.00000000
 Iteration  3 RMS(Cart)=  0.00000000 RMS(Int)=  0.00000000
 ITry= 1 IFail=0 DXMaxC= 1.68D-03 DCOld= 1.00D+10 DXMaxT= 3.00D-01 DXLimC= 3.00D+00 Rises=F
 ClnCor:  largest displacement from symmetrization is 9.16D-16 for atom     3.
 Variable       Old X    -DE/DX   Delta X   Delta X   Delta X     New X
                                 (Linear)    (Quad)   (Total)
    R1        1.80210  -0.00139  -0.00040  -0.00240  -0.00280   1.79930
    R2        1.80210  -0.00139  -0.00040  -0.00240  -0.00280   1.79930
    A1        1.86656   0.00041  -0.00145   0.00340   0.00195   1.86851
         Item               Value     Threshold  Converged?
 Maximum Force            0.001395     0.000015     NO 
 RMS     Force            0.001163     0.000010     NO 
 Maximum Displacement     0.001675     0.000060     NO 
 RMS     Displacement     0.001753     0.000040     NO 
 Predicted change in Energy=-4.304227D-06
 Lowest energy point so far.  Saving SCF results.
 GradGradGradGradGradGradGradGradGradGradGradGradGradGradGradGradGradGrad

 Leave Link  103 at Fri Sep  6 10:36:06 2024, MaxMem=   104857600 cpu:               0.0 elap:               0.0
 (Enter /Users/asuyarger/Applications/G16/g16/l202.exe)
                          Input orientation:                          
 ---------------------------------------------------------------------
 Center     Atomic      Atomic             Coordinates (Angstroms)
 Number     Number       Type             X           Y           Z
 ---------------------------------------------------------------------
      1          8           0       -0.321012    0.436552    0.004142
      2          1           0        0.630917    0.456844    0.004142
      3          1           0       -0.619645    1.340654    0.004142
 ---------------------------------------------------------------------
                    Distance matrix (angstroms):
                    1          2          3
     1  O    0.000000
     2  H    0.952146   0.000000
     3  H    0.952146   1.531348   0.000000
 Stoichiometry    H2O
 Framework group  C2V[C2(O),SGV(H2)]
 Deg. of freedom     2
 Full point group                 C2V     NOp   4
 RotChk:  IX=3 Diff= 5.50D-16
 Largest Abelian subgroup         C2V     NOp   4
 Largest concise Abelian subgroup C2      NOp   2
                         Standard orientation:                         
 ---------------------------------------------------------------------
 Center     Atomic      Atomic             Coordinates (Angstroms)
 Number     Number       Type             X           Y           Z
 ---------------------------------------------------------------------
      1          8           0        0.000000   -0.000000    0.113195
      2          1           0        0.000000   -0.765674   -0.452778
      3          1           0        0.000000    0.765674   -0.452778
 ---------------------------------------------------------------------
 Rotational constants (GHZ):         881.3654856         427.6755687         287.9500869
 Leave Link  202 at Fri Sep  6 10:36:06 2024, MaxMem=   104857600 cpu:               0.0 elap:               0.0
 (Enter /Users/asuyarger/Applications/G16/g16/l301.exe)
 Standard basis: VSTO-6G (5D, 7F)
 Ernie: Thresh=  0.10000D-02 Tol=  0.10000D-05 Strict=F.
  NNHCO=     0 NNPyr=     0 NCTC=     0               EPep=         0.000000000
    EC=         4.575440926  ECS=         0.531156659   EG=         0.001751558
   EHC=         0.000703165  EAt=       -11.378367313  AtH=         0.260972952
 EPDDG=         0.000000000  ECC=         5.109052308 EAtT=        11.639340265
 There are     3 symmetry adapted cartesian basis functions of A1  symmetry.
 There are     0 symmetry adapted cartesian basis functions of A2  symmetry.
 There are     1 symmetry adapted cartesian basis functions of B1  symmetry.
 There are     2 symmetry adapted cartesian basis functions of B2  symmetry.
 There are     3 symmetry adapted basis functions of A1  symmetry.
 There are     0 symmetry adapted basis functions of A2  symmetry.
 There are     1 symmetry adapted basis functions of B1  symmetry.
 There are     2 symmetry adapted basis functions of B2  symmetry.
     6 basis functions,    36 primitive gaussians,     6 cartesian basis functions
     4 alpha electrons        4 beta electrons
       nuclear repulsion energy        16.7483925730 Hartrees.
 IExCor=    0 DFT=F Ex=HF Corr=None ExCW=0 ScaHFX=  1.000000
 ScaDFX=  1.000000  1.000000  1.000000  1.000000 ScalE2=  1.000000  1.000000
 IRadAn=      5 IRanWt=     -1 IRanGd=            0 ICorTp=0 IEmpDi=  4
 Integral buffers will be    131072 words long.
 Regular integral format.
 Two-electron integral symmetry is turned off.
 Leave Link  301 at Fri Sep  6 10:36:06 2024, MaxMem=   104857600 cpu:               0.0 elap:               0.0
 (Enter /Users/asuyarger/Applications/G16/g16/l302.exe)
 Do NDO integrals.
 NPDir=0 NMtPBC=     1 NCelOv=     1 NCel=       1 NClECP=     1 NCelD=      1
         NCelK=      1 NCelE2=     1 NClLst=     1 CellRange=     0.0.
 One-electron integrals computed using PRISM.
 NBasis=     6 RedAO= T EigKep=  1.00D+00  NBF=     3     0     1     2
 NBsUse=     6 1.00D-06 EigRej= -1.00D+00 NBFU=     3     0     1     2
 Leave Link  302 at Fri Sep  6 10:36:06 2024, MaxMem=   104857600 cpu:               0.0 elap:               0.0
 (Enter /Users/asuyarger/Applications/G16/g16/l303.exe)
 DipDrv:  MaxL=1.
 Leave Link  303 at Fri Sep  6 10:36:06 2024, MaxMem=   104857600 cpu:               0.0 elap:               0.0
 (Enter /Users/asuyarger/Applications/G16/g16/l401.exe)
 Initial guess from the checkpoint file:  "H2O_PM6_Opt_Freq_Full_NBO.chk"
 B after Tr=     0.000000   -0.000000   -0.000000
         Rot=    1.000000   -0.000000    0.000000    0.000000 Ang=   0.00 deg.
 Guess basis will be translated and rotated to current coordinates.
 JPrj=0 DoOrth=T DoCkMO=T.
 Initial guess orbital symmetries:
       Occupied  (A1) (B2) (A1) (B1)
       Virtual   (A1) (B2)
 The electronic state of the initial guess is 1-A1.
 Leave Link  401 at Fri Sep  6 10:36:06 2024, MaxMem=   104857600 cpu:               0.0 elap:               0.0
 (Enter /Users/asuyarger/Applications/G16/g16/l502.exe)
 Keep J ints in memory in canonical form, NReq=859134.
 FoFCou: FMM=F IPFlag=           0 FMFlag=           0 FMFlg1=           0
         NFxFlg=           0 DoJE=F BraDBF=F KetDBF=F FulRan=T
         wScrn=  0.000000 ICntrl=       600 IOpCl=  2 I1Cent=           0 NGrid=           0
         NMat0=    1 NMatS0=     12 NMatT0=    0 NMatD0=    1 NMtDS0=    0 NMtDT0=    0
 Symmetry not used in FoFCou.
 Two-electron integral symmetry not used.
 Closed shell SCF:
 Using DIIS extrapolation, IDIIS=  1040.
 Overlap will be assumed to be unity.
 NGot=   104857600 LenX=   104797283 LenY=   104796401
 Requested convergence on RMS density matrix=1.00D-08 within 128 cycles.
 Requested convergence on MAX density matrix=1.00D-06.
 Requested convergence on             energy=1.00D-06.
 No special actions if energy rises.

 Cycle   1  Pass 1  IDiag  1:
 E=-0.863981475383753E-01
 DIIS: error= 2.16D-04 at cycle   1 NSaved=   1.
 NSaved= 1 IEnMin= 1 EnMin=-0.863981475383753E-01 IErMin= 1 ErrMin= 2.16D-04
 ErrMax= 2.16D-04  0.00D+00 EMaxC= 1.00D-01 BMatC= 5.64D-07 BMatP= 5.64D-07
 IDIUse=3 WtCom= 9.98D-01 WtEn= 2.16D-03
 Coeff-Com:  0.100D+01
 Coeff-En:   0.100D+01
 Coeff:      0.100D+01
 RMSDP=1.90D-04 MaxDP=4.62D-04              OVMax= 0.00D+00

 Cycle   2  Pass 1  IDiag  3:
 E=-0.863997528484468E-01 Delta-E=       -0.000001605310 Rises=F Damp=F
 DIIS: error= 8.55D-05 at cycle   2 NSaved=   2.
 NSaved= 2 IEnMin= 2 EnMin=-0.863997528484468E-01 IErMin= 2 ErrMin= 8.55D-05
 ErrMax= 8.55D-05  0.00D+00 EMaxC= 1.00D-01 BMatC= 8.29D-08 BMatP= 5.64D-07
 IDIUse=1 WtCom= 1.00D+00 WtEn= 0.00D+00
 Coeff-Com: -0.441D+00 0.144D+01
 Coeff:     -0.441D+00 0.144D+01
 Fock symm off for IB=4 I1=    1 I=    5 J=    3 Cut=1.00D-07 Err=3.50D-04
 Fock matrix is not symmetric: symmetry in diagonalization turned off.
 Gap=     0.585 Goal=   None    Shift=    0.000
 RMSDP=1.30D-04 MaxDP=3.84D-04 DE=-1.61D-06 OVMax= 5.23D-04

 Cycle   3  Pass 1  IDiag  3:
 E=-0.864001558215932E-01 Delta-E=       -0.000000402973 Rises=F Damp=F
 DIIS: error= 2.37D-05 at cycle   3 NSaved=   3.
 NSaved= 3 IEnMin= 3 EnMin=-0.864001558215932E-01 IErMin= 3 ErrMin= 2.37D-05
 ErrMax= 2.37D-05  0.00D+00 EMaxC= 1.00D-01 BMatC= 8.53D-09 BMatP= 8.29D-08
 IDIUse=1 WtCom= 1.00D+00 WtEn= 0.00D+00
 Coeff-Com:  0.274D+00-0.116D+01 0.188D+01
 Coeff:      0.274D+00-0.116D+01 0.188D+01
 Gap=     0.585 Goal=   None    Shift=    0.000
 RMSDP=6.90D-05 MaxDP=2.25D-04 DE=-4.03D-07 OVMax= 2.85D-04

 Cycle   4  Pass 1  IDiag  3:
 E=-0.864002100120516E-01 Delta-E=       -0.000000054190 Rises=F Damp=F
 DIIS: error= 1.85D-06 at cycle   4 NSaved=   4.
 NSaved= 4 IEnMin= 4 EnMin=-0.864002100120516E-01 IErMin= 4 ErrMin= 1.85D-06
 ErrMax= 1.85D-06  0.00D+00 EMaxC= 1.00D-01 BMatC= 3.03D-11 BMatP= 8.53D-09
 IDIUse=1 WtCom= 1.00D+00 WtEn= 0.00D+00
 Coeff-Com: -0.108D+00 0.460D+00-0.759D+00 0.141D+01
 Coeff:     -0.108D+00 0.460D+00-0.759D+00 0.141D+01
 Gap=     0.585 Goal=   None    Shift=    0.000
 RMSDP=2.02D-06 MaxDP=7.86D-06 DE=-5.42D-08 OVMax= 8.30D-06

 Cycle   5  Pass 1  IDiag  3:
 E=-0.864002101053813E-01 Delta-E=       -0.000000000093 Rises=F Damp=F
 DIIS: error= 2.41D-09 at cycle   5 NSaved=   5.
 NSaved= 5 IEnMin= 5 EnMin=-0.864002101053813E-01 IErMin= 5 ErrMin= 2.41D-09
 ErrMax= 2.41D-09  0.00D+00 EMaxC= 1.00D-01 BMatC= 8.81D-17 BMatP= 3.03D-11
 IDIUse=1 WtCom= 1.00D+00 WtEn= 0.00D+00
 Coeff-Com:  0.845D-06-0.635D-05-0.580D-04-0.936D-03 0.100D+01
 Coeff:      0.845D-06-0.635D-05-0.580D-04-0.936D-03 0.100D+01
 Gap=     0.585 Goal=   None    Shift=    0.000
 RMSDP=5.83D-09 MaxDP=1.60D-08 DE=-9.33D-11 OVMax= 2.09D-08

 Cycle   6  Pass 2  IDiag  1:
 SCF Done:  E(RPM6) = -0.864002101054E-01 A.U. after    6 cycles
            NFock=  5  Conv=0.58D-08     -V/T= 0.9957
 KE=-2.017512661701D+01 PE=-7.961176467650D+00 EE= 1.130151030154D+01
 Leave Link  502 at Fri Sep  6 10:36:06 2024, MaxMem=   104857600 cpu:               0.0 elap:               0.0
 (Enter /Users/asuyarger/Applications/G16/g16/l701.exe)
 ... and contract with generalized density number  0.
 Compute integral first derivatives.
 Leave Link  701 at Fri Sep  6 10:36:07 2024, MaxMem=   104857600 cpu:               0.0 elap:               0.0
 (Enter /Users/asuyarger/Applications/G16/g16/l702.exe)
 L702 exits ... SP integral derivatives will be done elsewhere.
 Leave Link  702 at Fri Sep  6 10:36:07 2024, MaxMem=   104857600 cpu:               0.0 elap:               0.0
 (Enter /Users/asuyarger/Applications/G16/g16/l703.exe)
 Integral derivatives from FoFJK, PRISM(SPDF).
 Compute integral first derivatives, UseDBF=F ICtDFT=           0.
 Calling FoFJK, ICntrl=      2127 FMM=F ISym2X=1 I1Cent= 0 IOpClX= 0 NMat=1 NMatS=1 NMatT=0.
 FoFJK:  IHMeth=40 ICntrl=    2127 DoSepK=F KAlg= 0 I1Cent=           0 FoldK=F
 IRaf=         0 NMat=       1 IRICut=       1 DoRegI=T DoRafI=F ISym2E= 1 IDoP0=3 IntGTp=3.
 FoFCou: FMM=F IPFlag=           0 FMFlag=      100000 FMFlg1=         800
         NFxFlg=           0 DoJE=F BraDBF=F KetDBF=F FulRan=T
         wScrn=  0.000000 ICntrl=      2127 IOpCl=  0 I1Cent=           0 NGrid=           0
         NMat0=    1 NMatS0=      1 NMatT0=    0 NMatD0=    1 NMtDS0=    0 NMtDT0=    0
 Petite list used in FoFCou.
 Leave Link  703 at Fri Sep  6 10:36:07 2024, MaxMem=   104857600 cpu:               0.0 elap:               0.0
 (Enter /Users/asuyarger/Applications/G16/g16/l716.exe)
 Dipole        = 1.08375917D-16 1.33226763D-15-8.17906363D-01
 ***** Axes restored to original set *****
 -------------------------------------------------------------------
 Center     Atomic                   Forces (Hartrees/Bohr)
 Number     Number              X              Y              Z
 -------------------------------------------------------------------
      1        8           0.000828733    0.001172630    0.000000000
      2        1          -0.000852535   -0.000276648    0.000000000
      3        1           0.000023802   -0.000895982   -0.000000000
 -------------------------------------------------------------------
 Cartesian Forces:  Max     0.001172630 RMS     0.000638450
 Leave Link  716 at Fri Sep  6 10:36:07 2024, MaxMem=   104857600 cpu:               0.0 elap:               0.0
 (Enter /Users/asuyarger/Applications/G16/g16/l103.exe)

 GradGradGradGradGradGradGradGradGradGradGradGradGradGradGradGradGradGrad
 Berny optimization.
 Using GEDIIS/GDIIS optimizer.
 FormGI is forming the generalized inverse of G from B-inverse, IUseBI=4.
 Internal  Forces:  Max     0.000858237 RMS     0.000750408
 Search for a local minimum.
 Step number   3 out of a maximum of   20
 All quantities printed in internal units (Hartrees-Bohrs-Radians)
 RMS Force = .75041D-03 SwitMx=.10000D-02 MixMth= 2
 Mixed Optimization -- En-DIIS/RFO-DIIS
 Update second derivatives using D2CorX and points    1    2    3
 DE= -7.16D-06 DEPred=-4.30D-06 R= 1.66D+00
 TightC=F SS=  1.41D+00  RLast= 4.41D-03 DXNew= 5.0454D-01 1.3243D-02
 Trust test= 1.66D+00 RLast= 4.41D-03 DXMaxT set to 3.00D-01
 The second derivative matrix:
                          R1        R2        A1
           R1           0.39655
           R2          -0.15818   0.39655
           A1           0.06712   0.06712   0.16489
 ITU=  1  1  0
 Use linear search instead of GDIIS.
     Eigenvalues ---    0.09984   0.30342   0.55473
 RFO step:  Lambda=-2.03060317D-06 EMin= 9.98375613D-02
 Quartic linear search produced a step of  1.98482.
 Iteration  1 RMS(Cart)=  0.00420081 RMS(Int)=  0.00001725
 Iteration  2 RMS(Cart)=  0.00001926 RMS(Int)=  0.00000000
 Iteration  3 RMS(Cart)=  0.00000000 RMS(Int)=  0.00000000
 ITry= 1 IFail=0 DXMaxC= 4.81D-03 DCOld= 1.00D+10 DXMaxT= 3.00D-01 DXLimC= 3.00D+00 Rises=F
 ClnCor:  largest displacement from symmetrization is 2.81D-15 for atom     3.
 Variable       Old X    -DE/DX   Delta X   Delta X   Delta X     New X
                                 (Linear)    (Quad)   (Total)
    R1        1.79930  -0.00086  -0.00556  -0.00018  -0.00574   1.79355
    R2        1.79930  -0.00086  -0.00556  -0.00018  -0.00574   1.79355
    A1        1.86851   0.00046   0.00387   0.00365   0.00752   1.87603
         Item               Value     Threshold  Converged?
 Maximum Force            0.000858     0.000015     NO 
 RMS     Force            0.000750     0.000010     NO 
 Maximum Displacement     0.004815     0.000060     NO 
 RMS     Displacement     0.004200     0.000040     NO 
 Predicted change in Energy=-6.628019D-06
 Lowest energy point so far.  Saving SCF results.
 GradGradGradGradGradGradGradGradGradGradGradGradGradGradGradGradGradGrad

 Leave Link  103 at Fri Sep  6 10:36:07 2024, MaxMem=   104857600 cpu:               0.0 elap:               0.0
 (Enter /Users/asuyarger/Applications/G16/g16/l202.exe)
                          Input orientation:                          
 ---------------------------------------------------------------------
 Center     Atomic      Atomic             Coordinates (Angstroms)
 Number     Number       Type             X           Y           Z
 ---------------------------------------------------------------------
      1          8           0       -0.319212    0.439100    0.004142
      2          1           0        0.629749    0.455759    0.004142
      3          1           0       -0.620278    1.339191    0.004142
 ---------------------------------------------------------------------
                    Distance matrix (angstroms):
                    1          2          3
     1  O    0.000000
     2  H    0.949107   0.000000
     3  H    0.949107   1.530692   0.000000
 Stoichiometry    H2O
 Framework group  C2V[C2(O),SGV(H2)]
 Deg. of freedom     2
 Full point group                 C2V     NOp   4
 RotChk:  IX=3 Diff= 3.51D-16
 Largest Abelian subgroup         C2V     NOp   4
 Largest concise Abelian subgroup C2      NOp   2
                         Standard orientation:                         
 ---------------------------------------------------------------------
 Center     Atomic      Atomic             Coordinates (Angstroms)
 Number     Number       Type             X           Y           Z
 ---------------------------------------------------------------------
      1          8           0       -0.000000   -0.000000    0.112259
      2          1           0        0.000000   -0.765346   -0.449034
      3          1           0        0.000000    0.765346   -0.449034
 ---------------------------------------------------------------------
 Rotational constants (GHZ):         896.1242143         428.0420196         289.6757285
 Leave Link  202 at Fri Sep  6 10:36:07 2024, MaxMem=   104857600 cpu:               0.0 elap:               0.0
 (Enter /Users/asuyarger/Applications/G16/g16/l301.exe)
 Standard basis: VSTO-6G (5D, 7F)
 Ernie: Thresh=  0.10000D-02 Tol=  0.10000D-05 Strict=F.
  NNHCO=     0 NNPyr=     0 NCTC=     0               EPep=         0.000000000
    EC=         4.581178766  ECS=         0.535711901   EG=         0.001742301
   EHC=         0.000730661  EAt=       -11.378367313  AtH=         0.260972952
 EPDDG=         0.000000000  ECC=         5.119363630 EAtT=        11.639340265
 There are     3 symmetry adapted cartesian basis functions of A1  symmetry.
 There are     0 symmetry adapted cartesian basis functions of A2  symmetry.
 There are     1 symmetry adapted cartesian basis functions of B1  symmetry.
 There are     2 symmetry adapted cartesian basis functions of B2  symmetry.
 There are     3 symmetry adapted basis functions of A1  symmetry.
 There are     0 symmetry adapted basis functions of A2  symmetry.
 There are     1 symmetry adapted basis functions of B1  symmetry.
 There are     2 symmetry adapted basis functions of B2  symmetry.
     6 basis functions,    36 primitive gaussians,     6 cartesian basis functions
     4 alpha electrons        4 beta electrons
       nuclear repulsion energy        16.7587038950 Hartrees.
 IExCor=    0 DFT=F Ex=HF Corr=None ExCW=0 ScaHFX=  1.000000
 ScaDFX=  1.000000  1.000000  1.000000  1.000000 ScalE2=  1.000000  1.000000
 IRadAn=      5 IRanWt=     -1 IRanGd=            0 ICorTp=0 IEmpDi=  4
 Integral buffers will be    131072 words long.
 Regular integral format.
 Two-electron integral symmetry is turned off.
 Leave Link  301 at Fri Sep  6 10:36:07 2024, MaxMem=   104857600 cpu:               0.0 elap:               0.0
 (Enter /Users/asuyarger/Applications/G16/g16/l302.exe)
 Do NDO integrals.
 NPDir=0 NMtPBC=     1 NCelOv=     1 NCel=       1 NClECP=     1 NCelD=      1
         NCelK=      1 NCelE2=     1 NClLst=     1 CellRange=     0.0.
 One-electron integrals computed using PRISM.
 NBasis=     6 RedAO= T EigKep=  1.00D+00  NBF=     3     0     1     2
 NBsUse=     6 1.00D-06 EigRej= -1.00D+00 NBFU=     3     0     1     2
 Leave Link  302 at Fri Sep  6 10:36:07 2024, MaxMem=   104857600 cpu:               0.0 elap:               0.0
 (Enter /Users/asuyarger/Applications/G16/g16/l303.exe)
 DipDrv:  MaxL=1.
 Leave Link  303 at Fri Sep  6 10:36:07 2024, MaxMem=   104857600 cpu:               0.0 elap:               0.0
 (Enter /Users/asuyarger/Applications/G16/g16/l401.exe)
 Initial guess from the checkpoint file:  "H2O_PM6_Opt_Freq_Full_NBO.chk"
 B after Tr=     0.000000   -0.000000    0.000000
         Rot=    1.000000   -0.000000   -0.000000   -0.000000 Ang=   0.00 deg.
 Guess basis will be translated and rotated to current coordinates.
 JPrj=0 DoOrth=T DoCkMO=T.
 Initial guess orbital symmetries:
       Occupied  (A1) (B2) (A1) (B1)
       Virtual   (A1) (B2)
 The electronic state of the initial guess is 1-A1.
 Leave Link  401 at Fri Sep  6 10:36:07 2024, MaxMem=   104857600 cpu:               0.0 elap:               0.0
 (Enter /Users/asuyarger/Applications/G16/g16/l502.exe)
 Keep J ints in memory in canonical form, NReq=859134.
 FoFCou: FMM=F IPFlag=           0 FMFlag=           0 FMFlg1=           0
         NFxFlg=           0 DoJE=F BraDBF=F KetDBF=F FulRan=T
         wScrn=  0.000000 ICntrl=       600 IOpCl=  2 I1Cent=           0 NGrid=           0
         NMat0=    1 NMatS0=     12 NMatT0=    0 NMatD0=    1 NMtDS0=    0 NMtDT0=    0
 Symmetry not used in FoFCou.
 Two-electron integral symmetry not used.
 Closed shell SCF:
 Using DIIS extrapolation, IDIIS=  1040.
 Overlap will be assumed to be unity.
 NGot=   104857600 LenX=   104797283 LenY=   104796401
 Requested convergence on RMS density matrix=1.00D-08 within 128 cycles.
 Requested convergence on MAX density matrix=1.00D-06.
 Requested convergence on             energy=1.00D-06.
 No special actions if energy rises.

 Cycle   1  Pass 1  IDiag  1:
 E=-0.863942669408786E-01
 DIIS: error= 4.81D-04 at cycle   1 NSaved=   1.
 NSaved= 1 IEnMin= 1 EnMin=-0.863942669408786E-01 IErMin= 1 ErrMin= 4.81D-04
 ErrMax= 4.81D-04  0.00D+00 EMaxC= 1.00D-01 BMatC= 2.94D-06 BMatP= 2.94D-06
 IDIUse=3 WtCom= 9.95D-01 WtEn= 4.81D-03
 Coeff-Com:  0.100D+01
 Coeff-En:   0.100D+01
 Coeff:      0.100D+01
 RMSDP=4.83D-04 MaxDP=1.22D-03              OVMax= 0.00D+00

 Cycle   2  Pass 1  IDiag  3:
 E=-0.864039284665239E-01 Delta-E=       -0.000009661526 Rises=F Damp=F
 DIIS: error= 2.16D-04 at cycle   2 NSaved=   2.
 NSaved= 2 IEnMin= 2 EnMin=-0.864039284665239E-01 IErMin= 2 ErrMin= 2.16D-04
 ErrMax= 2.16D-04  0.00D+00 EMaxC= 1.00D-01 BMatC= 5.36D-07 BMatP= 2.94D-06
 IDIUse=3 WtCom= 9.98D-01 WtEn= 2.16D-03
 Coeff-Com: -0.548D+00 0.155D+01
 Coeff-En:   0.000D+00 0.100D+01
 Coeff:     -0.547D+00 0.155D+01
 Fock symm off for IB=4 I1=    1 I=    5 J=    3 Cut=1.00D-07 Err=1.01D-03
 Fock matrix is not symmetric: symmetry in diagonalization turned off.
 Gap=     0.587 Goal=   None    Shift=    0.000
 RMSDP=3.69D-04 MaxDP=1.13D-03 DE=-9.66D-06 OVMax= 1.51D-03

 Cycle   3  Pass 1  IDiag  3:
 E=-0.864067691264161E-01 Delta-E=       -0.000002840660 Rises=F Damp=F
 DIIS: error= 5.36D-05 at cycle   3 NSaved=   3.
 NSaved= 3 IEnMin= 3 EnMin=-0.864067691264161E-01 IErMin= 3 ErrMin= 5.36D-05
 ErrMax= 5.36D-05  0.00D+00 EMaxC= 1.00D-01 BMatC= 4.51D-08 BMatP= 5.36D-07
 IDIUse=1 WtCom= 1.00D+00 WtEn= 0.00D+00
 Coeff-Com:  0.296D+00-0.108D+01 0.178D+01
 Coeff:      0.296D+00-0.108D+01 0.178D+01
 Gap=     0.587 Goal=   None    Shift=    0.000
 RMSDP=1.57D-04 MaxDP=5.07D-04 DE=-2.84D-06 OVMax= 6.43D-04

 Cycle   4  Pass 1  IDiag  3:
 E=-0.864070520657307E-01 Delta-E=       -0.000000282939 Rises=F Damp=F
 DIIS: error= 4.58D-06 at cycle   4 NSaved=   4.
 NSaved= 4 IEnMin= 4 EnMin=-0.864070520657307E-01 IErMin= 4 ErrMin= 4.58D-06
 ErrMax= 4.58D-06  0.00D+00 EMaxC= 1.00D-01 BMatC= 2.07D-10 BMatP= 4.51D-08
 IDIUse=1 WtCom= 1.00D+00 WtEn= 0.00D+00
 Coeff-Com: -0.108D+00 0.396D+00-0.674D+00 0.139D+01
 Coeff:     -0.108D+00 0.396D+00-0.674D+00 0.139D+01
 Gap=     0.587 Goal=   None    Shift=    0.000
 RMSDP=5.15D-06 MaxDP=1.96D-05 DE=-2.83D-07 OVMax= 2.07D-05

 Cycle   5  Pass 1  IDiag  3:
 E=-0.864070526852103E-01 Delta-E=       -0.000000000619 Rises=F Damp=F
 DIIS: error= 1.50D-08 at cycle   5 NSaved=   5.
 NSaved= 5 IEnMin= 5 EnMin=-0.864070526852103E-01 IErMin= 5 ErrMin= 1.50D-08
 ErrMax= 1.50D-08  0.00D+00 EMaxC= 1.00D-01 BMatC= 3.34D-15 BMatP= 2.07D-10
 IDIUse=1 WtCom= 1.00D+00 WtEn= 0.00D+00
 Coeff-Com:  0.275D-05-0.199D-04-0.132D-03-0.235D-02 0.100D+01
 Coeff:      0.275D-05-0.199D-04-0.132D-03-0.235D-02 0.100D+01
 Gap=     0.587 Goal=   None    Shift=    0.000
 RMSDP=3.47D-08 MaxDP=9.16D-08 DE=-6.19D-10 OVMax= 1.22D-07

 Cycle   6  Pass 1  IDiag  3:
 E=-0.864070526852245E-01 Delta-E=       -0.000000000000 Rises=F Damp=F
 DIIS: error= 1.26D-11 at cycle   6 NSaved=   6.
 NSaved= 6 IEnMin= 6 EnMin=-0.864070526852245E-01 IErMin= 6 ErrMin= 1.26D-11
 ErrMax= 1.26D-11  0.00D+00 EMaxC= 1.00D-01 BMatC= 1.67D-21 BMatP= 3.34D-15
 IDIUse=1 WtCom= 1.00D+00 WtEn= 0.00D+00
 Large coefficients: NSaved=  6 BigCof=    0.00 CofMax=   10.00 Det= 8.12D-31
 Inversion failed.  Reducing to  5 matrices.
 Large coefficients: NSaved=  5 BigCof=    0.00 CofMax=   10.00 Det=-1.53D-23
 Inversion failed.  Reducing to  4 matrices.
 Coeff-Com:  0.176D-05 0.210D-04-0.100D-01 0.101D+01
 Coeff:      0.176D-05 0.210D-04-0.100D-01 0.101D+01
 Gap=     0.587 Goal=   None    Shift=    0.000
 RMSDP=1.40D-11 MaxDP=3.65D-11 DE=-1.42D-14 OVMax= 4.20D-11

 Cycle   7  Pass 2  IDiag  1:
 SCF Done:  E(RPM6) = -0.864070526852E-01 A.U. after    7 cycles
            NFock=  6  Conv=0.14D-10     -V/T= 0.9957
 KE=-2.018018365921D+01 PE=-7.968435818778D+00 EE= 1.130350853031D+01
 Leave Link  502 at Fri Sep  6 10:36:07 2024, MaxMem=   104857600 cpu:               0.0 elap:               0.0
 (Enter /Users/asuyarger/Applications/G16/g16/l701.exe)
 ... and contract with generalized density number  0.
 Compute integral first derivatives.
 Leave Link  701 at Fri Sep  6 10:36:07 2024, MaxMem=   104857600 cpu:               0.0 elap:               0.0
 (Enter /Users/asuyarger/Applications/G16/g16/l702.exe)
 L702 exits ... SP integral derivatives will be done elsewhere.
 Leave Link  702 at Fri Sep  6 10:36:07 2024, MaxMem=   104857600 cpu:               0.0 elap:               0.0
 (Enter /Users/asuyarger/Applications/G16/g16/l703.exe)
 Integral derivatives from FoFJK, PRISM(SPDF).
 Compute integral first derivatives, UseDBF=F ICtDFT=           0.
 Calling FoFJK, ICntrl=      2127 FMM=F ISym2X=1 I1Cent= 0 IOpClX= 0 NMat=1 NMatS=1 NMatT=0.
 FoFJK:  IHMeth=40 ICntrl=    2127 DoSepK=F KAlg= 0 I1Cent=           0 FoldK=F
 IRaf=         0 NMat=       1 IRICut=       1 DoRegI=T DoRafI=F ISym2E= 1 IDoP0=3 IntGTp=3.
 FoFCou: FMM=F IPFlag=           0 FMFlag=      100000 FMFlg1=         800
         NFxFlg=           0 DoJE=F BraDBF=F KetDBF=F FulRan=T
         wScrn=  0.000000 ICntrl=      2127 IOpCl=  0 I1Cent=           0 NGrid=           0
         NMat0=    1 NMatS0=      1 NMatT0=    0 NMatD0=    1 NMtDS0=    0 NMtDT0=    0
 Petite list used in FoFCou.
 Leave Link  703 at Fri Sep  6 10:36:07 2024, MaxMem=   104857600 cpu:               0.0 elap:               0.0
 (Enter /Users/asuyarger/Applications/G16/g16/l716.exe)
 Dipole        = 7.23157092D-17 4.44089210D-16-8.13980881D-01
 ***** Axes restored to original set *****
 -------------------------------------------------------------------
 Center     Atomic                   Forces (Hartrees/Bohr)
 Number     Number              X              Y              Z
 -------------------------------------------------------------------
      1        8           0.000029068    0.000041131    0.000000000
      2        1           0.000025391   -0.000048782    0.000000000
      3        1          -0.000054460    0.000007651   -0.000000000
 -------------------------------------------------------------------
 Cartesian Forces:  Max     0.000054460 RMS     0.000030886
 Leave Link  716 at Fri Sep  6 10:36:07 2024, MaxMem=   104857600 cpu:               0.0 elap:               0.0
 (Enter /Users/asuyarger/Applications/G16/g16/l103.exe)

 GradGradGradGradGradGradGradGradGradGradGradGradGradGradGradGradGradGrad
 Berny optimization.
 Using GEDIIS/GDIIS optimizer.
 FormGI is forming the generalized inverse of G from B-inverse, IUseBI=4.
 Internal  Forces:  Max     0.000088279 RMS     0.000054762
 Search for a local minimum.
 Step number   4 out of a maximum of   20
 All quantities printed in internal units (Hartrees-Bohrs-Radians)
 RMS Force = .54762D-04 SwitMx=.10000D-02 MixMth= 2
 Mixed Optimization -- En-DIIS/RFO-DIIS
 Swapping is turned off.
 Update second derivatives using D2CorX and points    1    2    3    4
 DE= -6.84D-06 DEPred=-6.63D-06 R= 1.03D+00
 TightC=F SS=  1.41D+00  RLast= 1.11D-02 DXNew= 5.0454D-01 3.3204D-02
 Trust test= 1.03D+00 RLast= 1.11D-02 DXMaxT set to 3.00D-01
 The second derivative matrix:
                          R1        R2        A1
           R1           0.39263
           R2          -0.16210   0.39263
           A1           0.05865   0.05865   0.13967
 ITU=  1  1  1  0
     Eigenvalues ---    0.09053   0.27967   0.55473
 En-DIIS/RFO-DIIS/Sim-DIIS IScMMF=       -3 using points:     4    3
 RFO step:  Lambda=-5.75332328D-08.
 NNeg= 0 NGDIIS= 2 SimSw=  2.50D-01 Rises=F DC= -6.84D-06 SmlDif=  1.00D-05
 NRisDI= 0 DoIntr=F SqrtH=F CThrHd= 10.0 CDAdj=  3.0
 RMS Error=  0.4024509289D-03 NUsed= 2 OKEnD=F EnDIS=F
 InvSVX:  RCond= 3.06D-05 Info=           0 Equed=N FErr=  1.06D-15 BErr=  6.24D-17
 DidBck=F Rises=F RFO-DIIS coefs:    1.04885   -0.04885
 Iteration  1 RMS(Cart)=  0.00035912 RMS(Int)=  0.00000009
 Iteration  2 RMS(Cart)=  0.00000008 RMS(Int)=  0.00000000
 ITry= 1 IFail=0 DXMaxC= 3.57D-04 DCOld= 1.00D+10 DXMaxT= 3.00D-01 DXLimC= 3.00D+00 Rises=F
 ClnCor:  largest displacement from symmetrization is 9.44D-15 for atom     3.
 Variable       Old X    -DE/DX   Delta X   Delta X   Delta X     New X
                                 (Linear)    (Quad)   (Total)
    R1        1.79355   0.00002  -0.00028   0.00021  -0.00007   1.79348
    R2        1.79355   0.00002  -0.00028   0.00021  -0.00007   1.79348
    A1        1.87603   0.00009   0.00037   0.00032   0.00069   1.87672
         Item               Value     Threshold  Converged?
 Maximum Force            0.000088     0.000015     NO 
 RMS     Force            0.000055     0.000010     NO 
 Maximum Displacement     0.000357     0.000060     NO 
 RMS     Displacement     0.000359     0.000040     NO 
 Predicted change in Energy=-2.876662D-08
 Lowest energy point so far.  Saving SCF results.
 GradGradGradGradGradGradGradGradGradGradGradGradGradGradGradGradGradGrad

 Leave Link  103 at Fri Sep  6 10:36:07 2024, MaxMem=   104857600 cpu:               0.0 elap:               0.0
 (Enter /Users/asuyarger/Applications/G16/g16/l202.exe)
                          Input orientation:                          
 ---------------------------------------------------------------------
 Center     Atomic      Atomic             Coordinates (Angstroms)
 Number     Number       Type             X           Y           Z
 ---------------------------------------------------------------------
      1          8           0       -0.319102    0.439255    0.004142
      2          1           0        0.629828    0.455587    0.004142
[...]
 
                     E (Thermal)             CV                S
                      KCal/Mol        Cal/Mol-Kelvin    Cal/Mol-Kelvin
 Total                   11.048              6.095             45.000
 Electronic               0.000              0.000              0.000
 Translational            0.889              2.981             34.608
 Rotational               0.889              2.981             10.368
 Vibrational              9.270              0.134              0.024
                       Q            Log10(Q)             Ln(Q)
 Total Bot       0.200523D+02          1.302164          2.998344
 Total V=0       0.123838D+09          8.092854         18.634484
 Vib (Bot)       0.162181D-06         -6.789999        -15.634550
 Vib (V=0)       0.100159D+01          0.000691          0.001590
 Electronic      0.100000D+01          0.000000          0.000000
 Translational   0.300431D+07          6.477745         14.915559
 Rotational      0.411546D+02          1.614418          3.717335
 
                                                    H2O PM6 Opt Freq - Full - NBO
                                                             IR Spectrum
 
      2   2                                                         1                                                                
      6   5                                                         3                                                                
      1   2                                                         3                                                                
      5   9                                                         7                                                                
 
      X   X                                                         X                                                                
      X   X                                                         X                                                                
          X                                                         X                                                                
          X                                                         X                                                                
          X                                                         X                                                                
          X                                                         X                                                                
          X                                                                                                                          
          X                                                                                                                          
          X                                                                                                                          
          X                                                                                                                          
          X                                                                                                                          
          X                                                                                                                          
          X                                                                                                                          
          X                                                                                                                          
          X                                                                                                                          
          X                                                                                                                          
          X                                                                                                                          
          X                                                                                                                          
          X                                                                                                                          
          X                                                                                                                          
 
 
                                                    H2O PM6 Opt Freq - Full - NBO
                                                            Raman Spectrum
 
      2   2                                                         1                                                                
      6   5                                                         3                                                                
      1   2                                                         3                                                                
      5   9                                                         7                                                                
 
      X   X                                                         X                                                                
      X   X                                                         X                                                                
      X   X                                                         X                                                                
      X   X                                                         X                                                                
      X   X                                                         X                                                                
      X   X                                                         X                                                                
      X   X                                                         X                                                                
      X   X                                                         X                                                                
      X   X                                                         X                                                                
      X   X                                                         X                                                                
      X   X                                                         X                                                                
      X   X                                                                                                                          
      X   X                                                                                                                          
      X                                                                                                                              
      X                                                                                                                              
      X                                                                                                                              
      X                                                                                                                              
      X                                                                                                                              
      X                                                                                                                              
      X                                                                                                                              
 
 ***** Axes restored to original set *****
 -------------------------------------------------------------------
 Center     Atomic                   Forces (Hartrees/Bohr)
 Number     Number              X              Y              Z
 -------------------------------------------------------------------
      1        8           0.000000451    0.000000639    0.000000000
      2        1          -0.000001279    0.000000425    0.000000000
      3        1           0.000000827   -0.000001064   -0.000000000
 -------------------------------------------------------------------
 Cartesian Forces:  Max     0.000001279 RMS     0.000000687
 Force constants in Cartesian coordinates: 
                1             2             3             4             5 
      1  0.244659D+00
      2 -0.687991D-01  0.195933D+00
      3  0.000000D+00  0.000000D+00  0.000000D+00
      4 -0.195774D+00  0.379438D-01  0.000000D+00  0.229765D+00
      5 -0.211608D-01 -0.245218D-01  0.000000D+00 -0.306106D-01  0.427760D-01
      6  0.000000D+00  0.000000D+00  0.000000D+00  0.000000D+00  0.000000D+00
      7 -0.488848D-01  0.308553D-01  0.000000D+00 -0.339906D-01  0.517714D-01
      8  0.899600D-01 -0.171411D+00  0.000000D+00 -0.733321D-02 -0.182542D-01
      9  0.000000D+00  0.000000D+00  0.000000D+00  0.000000D+00  0.000000D+00
                6             7             8             9 
      6  0.000000D+00
      7  0.000000D+00  0.828754D-01
      8  0.000000D+00 -0.826267D-01  0.189665D+00
      9  0.000000D+00  0.000000D+00  0.000000D+00  0.000000D+00
 FormGI is forming the generalized inverse of G from B-inverse, IUseBI=4.
 Force constants in internal coordinates: 
                1             2             3 
      1  0.228656D+00
      2  0.325826D-02  0.228656D+00
      3  0.606374D-01  0.606374D-01  0.141156D+00
 Leave Link  716 at Fri Sep  6 10:36:09 2024, MaxMem=   104857600 cpu:               0.0 elap:               0.0
 (Enter /Users/asuyarger/Applications/G16/g16/l103.exe)

 GradGradGradGradGradGradGradGradGradGradGradGradGradGradGradGradGradGrad
 Berny optimization.
 Red2BG is reusing G-inverse.
 Internal  Forces:  Max     0.000001271 RMS     0.000001136
 Search for a local minimum.
 Step number   1 out of a maximum of    2
 All quantities printed in internal units (Hartrees-Bohrs-Radians)
 Second derivative matrix not updated -- analytic derivatives used.
 The second derivative matrix:
                          R1        R2        A1
           R1           0.22866
           R2           0.00326   0.22866
           A1           0.06064   0.06064   0.14116
 ITU=  0
     Eigenvalues ---    0.08951   0.22540   0.28356
 Angle between quadratic step and forces=  14.31 degrees.
 Linear search not attempted -- first point.
 Iteration  1 RMS(Cart)=  0.00000406 RMS(Int)=  0.00000000
 Iteration  2 RMS(Cart)=  0.00000000 RMS(Int)=  0.00000000
 ITry= 1 IFail=0 DXMaxC= 4.35D-06 DCOld= 1.00D+10 DXMaxT= 3.00D-01 DXLimC= 3.00D+00 Rises=F
 ClnCor:  largest displacement from symmetrization is 1.40D-15 for atom     3.
 Variable       Old X    -DE/DX   Delta X   Delta X   Delta X     New X
                                 (Linear)    (Quad)   (Total)
    R1        1.79348  -0.00000   0.00000  -0.00001  -0.00001   1.79348
    R2        1.79348  -0.00000   0.00000  -0.00001  -0.00001   1.79348
    A1        1.87672  -0.00000   0.00000  -0.00000  -0.00000   1.87672
         Item               Value     Threshold  Converged?
 Maximum Force            0.000001     0.000015     YES
 RMS     Force            0.000001     0.000010     YES
 Maximum Displacement     0.000004     0.000060     YES
 RMS     Displacement     0.000004     0.000040     YES
 Predicted change in Energy=-7.052942D-12
 Optimization completed.
    -- Stationary point found.
                           ----------------------------
                           !   Optimized Parameters   !
                           ! (Angstroms and Degrees)  !
 --------------------------                            --------------------------
 ! Name  Definition              Value          Derivative Info.                !
 --------------------------------------------------------------------------------
 ! R1    R(1,2)                  0.9491         -DE/DX =    0.0                 !
 ! R2    R(1,3)                  0.9491         -DE/DX =    0.0                 !
 ! A1    A(2,1,3)              107.528          -DE/DX =    0.0                 !
 --------------------------------------------------------------------------------
 GradGradGradGradGradGradGradGradGradGradGradGradGradGradGradGradGradGrad

 Leave Link  103 at Fri Sep  6 10:36:09 2024, MaxMem=   104857600 cpu:               0.0 elap:               0.0
 (Enter /Users/asuyarger/Applications/G16/g16/l9999.exe)

 ----------------------------------------------------------------------

 Electric dipole moment (input orientation):
 (Debye = 10**-18 statcoulomb cm , SI units = C m)
                  (au)            (Debye)         (10**-30 SI)
   Tot        0.813779D+00      0.206842D+01      0.689951D+01
   x          0.469669D+00      0.119378D+01      0.398202D+01
   y          0.664566D+00      0.168916D+01      0.563443D+01
   z          0.000000D+00      0.000000D+00      0.000000D+00

 Dipole polarizability, Alpha (input orientation).
 (esu units = cm**3 , SI units = C**2 m**2 J**-1)
 Alpha(0;0):
               (au)            (10**-24 esu)      (10**-40 SI)
   iso        0.257599D+01      0.381722D+00      0.424723D+00
   aniso      0.413929D+01      0.613380D+00      0.682477D+00
   xx         0.416469D+01      0.617143D+00      0.686664D+00
   yx        -0.968351D+00     -0.143495D+00     -0.159659D+00
   yy         0.347886D+01      0.515514D+00      0.573587D+00
   zx         0.000000D+00      0.000000D+00      0.000000D+00
   zy         0.000000D+00      0.000000D+00      0.000000D+00
   zz         0.844133D-01      0.125088D-01      0.139179D-01

 First dipole hyperpolarizability, Beta (input orientation).
 ||, _|_  parallel and perpendicular components, (z) with respect to z axis,
 vector components x,y,z.  Values do not include the 1/n! factor of 1/2.
 (esu units = statvolt**-1 cm**4 , SI units = C**3 m**3 J**-2)
 Beta(0;0,0):
               (au)            (10**-30 esu)      (10**-50 SI)
   || (z)     0.000000D+00      0.000000D+00      0.000000D+00
   _|_(z)     0.000000D+00      0.000000D+00      0.000000D+00
   x          0.325817D+02      0.281480D+00      0.104469D+00
   y          0.461020D+02      0.398286D+00      0.147820D+00
   z          0.000000D+00      0.000000D+00      0.000000D+00
   ||         0.112906D+02      0.975423D-01      0.362019D-01
   xxx        0.134440D+02      0.116146D+00      0.431063D-01
   xxy        0.231220D+01      0.199756D-01      0.741376D-02
   yxy       -0.264584D+01     -0.228580D-01     -0.848351D-02
   yyy        0.129668D+02      0.112023D+00      0.415763D-01
   xxz        0.000000D+00      0.000000D+00      0.000000D+00
   yxz        0.000000D+00      0.000000D+00      0.000000D+00
   yyz        0.000000D+00      0.000000D+00      0.000000D+00
   zxz        0.624182D-01      0.539245D-03      0.200135D-03
   zyz        0.883197D-01      0.763014D-03      0.283185D-03
   zzz        0.000000D+00      0.000000D+00      0.000000D+00

 ----------------------------------------------------------------------

 Dipole orientation:
     8         -0.79790090          0.55431528          0.32984433
     1          0.38345646         -0.28058556          1.38999433
     1         -1.97925826          1.38921612          1.38999433

 Electric dipole moment (dipole orientation):
 (Debye = 10**-18 statcoulomb cm , SI units = C m)
                  (au)            (Debye)         (10**-30 SI)
   Tot        0.813779D+00      0.206842D+01      0.689951D+01
   x          0.000000D+00      0.000000D+00      0.000000D+00
   y          0.000000D+00      0.000000D+00      0.000000D+00
   z          0.813779D+00      0.206842D+01      0.689951D+01

 Dipole polarizability, Alpha (dipole orientation).
 (esu units = cm**3 , SI units = C**2 m**2 J**-1)
 Alpha(0;0):
               (au)            (10**-24 esu)      (10**-40 SI)
   iso        0.257599D+01      0.381722D+00      0.424723D+00
   aniso      0.413929D+01      0.613380D+00      0.682477D+00
   xx         0.326196D+01      0.483373D+00      0.537825D+00
   yx        -0.224567D+01     -0.332774D+00     -0.370261D+00
   yy         0.167150D+01      0.247690D+00      0.275593D+00
   zx         0.000000D+00      0.000000D+00      0.000000D+00
   zy         0.000000D+00      0.000000D+00      0.000000D+00
   zz         0.279450D+01      0.414102D+00      0.460751D+00

 First dipole hyperpolarizability, Beta (dipole orientation).
 ||, _|_  parallel and perpendicular components, (z) with respect to z axis,
 vector components x,y,z.  Values do not include the 1/n! factor of 1/2.
 (esu units = statvolt**-1 cm**4 , SI units = C**3 m**3 J**-2)
 Beta(0;0,0):
               (au)            (10**-30 esu)      (10**-50 SI)
   || (z)     0.112906D+02      0.975423D-01      0.362019D-01
   _|_(z)     0.376355D+01      0.325141D-01      0.120673D-01
   x          0.000000D+00      0.000000D+00      0.000000D+00
   y          0.000000D+00      0.000000D+00      0.000000D+00
   z          0.564532D+02      0.487712D+00      0.181009D+00
   ||         0.112906D+02      0.975423D-01      0.362019D-01
   xxx        0.000000D+00      0.000000D+00      0.000000D+00
   xxy        0.000000D+00      0.000000D+00      0.000000D+00
   yxy        0.000000D+00      0.000000D+00      0.000000D+00
   yyy        0.000000D+00      0.000000D+00      0.000000D+00
   xxz        0.685931D+01      0.592591D-01      0.219934D-01
   yxz       -0.477125D+01     -0.412198D-01     -0.152983D-01
   yyz        0.348013D+01      0.300656D-01      0.111586D-01
   zxz        0.000000D+00      0.000000D+00      0.000000D+00
   zyz        0.000000D+00      0.000000D+00      0.000000D+00
   zzz        0.847829D+01      0.732459D-01      0.271845D-01

 ----------------------------------------------------------------------
 1\1\GINC-JEFFSMACSTUDIO\Freq\RPM6\ZDO\H2O1\ROOT\06-Sep-2024\0\\#P Geom
 =AllCheck Guess=TCheck SCRF=Check GenChk RPM6/ZDO Freq\\H2O PM6 Opt Fr
 eq - Full - NBO\\0,1\O,-0.3191018304,0.4392553752,0.00414228\H,0.62982
 81802,0.4555866852,0.00414228\H,-0.6204666019,1.3392076802,0.00414228\
 \Version=EM64M-G16RevA.03\State=1-A1\HF=-0.0864071\RMSD=5.033e-16\RMSF
 =6.866e-07\ZeroPoint=0.0147634\Thermal=0.0176057\Dipole=0.4696689,0.66
 45661,0.\DipoleDeriv=-0.6932024,0.1804507,0.,0.1804507,-0.5654005,0.,0
 .,0.,-0.7676078,0.3823483,-0.0591107,0.,-0.0960226,0.2469532,0.,0.,0.,
 0.3838039,0.3108541,-0.12134,0.,-0.0844281,0.3184473,0.,0.,0.,0.383803
 9\Polar=4.1646854,-0.9683505,3.4788636,0.,0.,0.0844133\PolarDeriv=-6.5
 109027,-2.486973,-0.3357302,0.,0.,0.0653392,-1.7314031,-0.8697142,-7.9
 563583,0.,0.,0.0924528,0.,0.,0.,-1.4753706,-2.0876011,0.,7.2281061,0.2
 956412,0.5443642,0.,0.,-0.0479262,0.8151977,2.081065,0.9550048,0.,0.,-
 0.0354441,0.,0.,0.,2.0825583,0.0933383,0.,-0.7172034,2.1913318,-0.2086
 34,0.,0.,-0.0174129,0.9162053,-1.2113509,7.0013535,0.,0.,-0.0570087,0.
 ,0.,0.,-0.6071876,1.9942628,0.\HyperPolar=13.4439823,2.3122042,-2.6458
 371,12.9668177,0.,0.,0.,0.0624182,0.0883197,0.\PG=C02V [C2(O1),SGV(H2)
 ]\NImag=0\\0.24465880,-0.06879912,0.19593271,0.,0.,0.00000074,-0.19577
 398,0.03794378,0.,0.22976455,-0.02116084,-0.02452178,0.,-0.03061057,0.
 04277596,0.,0.,-0.00000037,0.,0.,0.00000063,-0.04888482,0.03085534,0.,
 -0.03399057,0.05177141,0.,0.08287540,0.08995996,-0.17141094,0.,-0.0073
 3321,-0.01825418,0.,-0.08262674,0.18966512,0.,0.,-0.00000037,0.,0.,-0.
 00000026,0.,0.,0.00000063\\-0.00000045,-0.00000064,0.,0.00000128,-0.00
 000042,0.,-0.00000083,0.00000106,0.\\\@


 THE MOST INCOMPREHENSIBLE THING ABOUT THE WORLD
 IS THAT IT IS COMPREHENSIBLE. -- A. EINSTEIN
 Job cpu time:       0 days  0 hours  0 minutes  0.9 seconds.
 Elapsed time:       0 days  0 hours  0 minutes  0.7 seconds.
 File lengths (MBytes):  RWF=      6 Int=      0 D2E=      0 Chk=      2 Scr=      1
 Normal termination of Gaussian 16 at Fri Sep  6 10:36:09 2024.
