 Entering Gaussian System, Link 0=g16
 Input=/Users/asuyarger/Downloads/H2O_DFT_B3LPY_apVTZ_Opt_Freq_Full_NBO.gjf
 Output=/Users/asuyarger/Downloads/H2O_DFT_B3LPY_apVTZ_Opt_Freq_Full_NBO.log
 Initial command:
 /Users/asuyarger/Applications/G16/g16/l1.exe "/Users/asuyarger/Applications/G16/scratch/Gau-88895.inp" -scrdir="/Users/asuyarger/Applications/G16/scratch/"
 Entering Link 1 = /Users/asuyarger/Applications/G16/g16/l1.exe PID=     88896.
  
 Copyright (c) 1988,1990,1992,1993,1995,1998,2003,2009,2016,
            Gaussian, Inc.  All Rights Reserved.
  
 This is part of the Gaussian(R) 16 program.  It is based on
 the Gaussian(R) 09 system (copyright 2009, Gaussian, Inc.),
 the Gaussian(R) 03 system (copyright 2003, Gaussian, Inc.),
 the Gaussian(R) 98 system (copyright 1998, Gaussian, Inc.),
 the Gaussian(R) 94 system (copyright 1995, Gaussian, Inc.),
 the Gaussian 92(TM) system (copyright 1992, Gaussian, Inc.),
 the Gaussian 90(TM) system (copyright 1990, Gaussian, Inc.),
 the Gaussian 88(TM) system (copyright 1988, Gaussian, Inc.),
 the Gaussian 86(TM) system (copyright 1986, Carnegie Mellon
 University), and the Gaussian 82(TM) system (copyright 1983,
 Carnegie Mellon University). Gaussian is a federally registered
 trademark of Gaussian, Inc.
  
 This software contains proprietary and confidential information,
 including trade secrets, belonging to Gaussian, Inc.
  
 This software is provided under written license and may be
 used, copied, transmitted, or stored only in accord with that
 written license.
  
 The following legend is applicable only to US Government
 contracts under FAR:
  
                    RESTRICTED RIGHTS LEGEND
  
 Use, reproduction and disclosure by the US Government is
 subject to restrictions as set forth in subparagraphs (a)
 and (c) of the Commercial Computer Software - Restricted
 Rights clause in FAR 52.227-19.
  
 Gaussian, Inc.
 340 Quinnipiac St., Bldg. 40, Wallingford CT 06492
  
  
 ---------------------------------------------------------------
 Warning -- This program may not be used in any manner that
 competes with the business of Gaussian, Inc. or will provide
 assistance to any competitor of Gaussian, Inc.  The licensee
 of this program is prohibited from giving any competitor of
 Gaussian, Inc. access to this program.  By using this program,
 the user acknowledges that Gaussian, Inc. is engaged in the
 business of creating and licensing software in the field of
 computational chemistry and represents and warrants to the
 licensee that it is not a competitor of Gaussian, Inc. and that
 it will not use this program in any manner prohibited above.
 ---------------------------------------------------------------
  

 Cite this work as:
 Gaussian 16, Revision A.03,
 M. J. Frisch, G. W. Trucks, H. B. Schlegel, G. E. Scuseria, 
 M. A. Robb, J. R. Cheeseman, G. Scalmani, V. Barone, 
 G. A. Petersson, H. Nakatsuji, X. Li, M. Caricato, A. V. Marenich, 
 J. Bloino, B. G. Janesko, R. Gomperts, B. Mennucci, H. P. Hratchian, 
 J. V. Ortiz, A. F. Izmaylov, J. L. Sonnenberg, D. Williams-Young, 
 F. Ding, F. Lipparini, F. Egidi, J. Goings, B. Peng, A. Petrone, 
 T. Henderson, D. Ranasinghe, V. G. Zakrzewski, J. Gao, N. Rega, 
 G. Zheng, W. Liang, M. Hada, M. Ehara, K. Toyota, R. Fukuda, 
 J. Hasegawa, M. Ishida, T. Nakajima, Y. Honda, O. Kitao, H. Nakai, 
 T. Vreven, K. Throssell, J. A. Montgomery, Jr., J. E. Peralta, 
 F. Ogliaro, M. J. Bearpark, J. J. Heyd, E. N. Brothers, K. N. Kudin, 
 V. N. Staroverov, T. A. Keith, R. Kobayashi, J. Normand, 
 K. Raghavachari, A. P. Rendell, J. C. Burant, S. S. Iyengar, 
 J. Tomasi, M. Cossi, J. M. Millam, M. Klene, C. Adamo, R. Cammi, 
 J. W. Ochterski, R. L. Martin, K. Morokuma, O. Farkas, 
 J. B. Foresman, and D. J. Fox, Gaussian, Inc., Wallingford CT, 2016.
 
 ******************************************
 Gaussian 16:  EM64M-G16RevA.03 25-Dec-2016
                 6-Sep-2024 
 ******************************************
 %nprocshared=8
 Will use up to    8 processors via shared memory.
 %mem=8GB
 %chk=H2O_DFT_B3LPY_apVTZ_Opt_Freq_Full_NBO.chk
 ----------------------------------------------------------------------
 #p opt=tight freq=raman b3lyp/aug-cc-pvtz guess=save pop=(hirshfeld,fu
 ll,nbo) geom=connectivity polar
 ----------------------------------------------------------------------
 1/7=10,18=20,19=15,26=3,38=1,57=2/1,3;
 2/9=110,12=2,17=6,18=5,40=1/2;
 3/5=16,6=1,7=10,11=2,25=1,30=1,71=1,74=-5/1,2,3;
 4//1;
 5/5=2,38=5,98=1/2;
 6/7=3,28=1,40=1,79=1/1,7;
 7//1,2,3,16;
 1/7=10,18=20,19=15,26=3/3(2);
 2/9=110/2;
 99//99;
 2/9=110/2;
 3/5=16,6=1,7=10,11=2,25=1,30=1,71=1,74=-5/1,2,3;
 4/5=5,16=3,69=1/1;
 5/5=2,38=5,98=1/2;
 7//1,2,3,16;
 1/7=10,18=20,19=15,26=3/3(-5);
 2/9=110/2;
 6/7=3,19=2,28=1,40=1,79=1/1,7;
 99/9=1/99;
 Leave Link    1 at Fri Sep  6 10:42:50 2024, MaxMem=  1073741824 cpu:               0.2 elap:               0.0
 (Enter /Users/asuyarger/Applications/G16/g16/l101.exe)
 -----------------------------------------------
 H2O DFT B3LPY aug-cc-pVTZ Opt Freq - Full - NBO
 -----------------------------------------------
 Symbolic Z-matrix:
 Charge =  0 Multiplicity = 1
 O                    -0.3165    0.44293   0.00414 
 H                     0.6435    0.44317   0.00414 
 H                    -0.63673   1.34795   0.00414 
 
 ITRead=  0  0  0
 MicOpt= -1 -1 -1
 NAtoms=      3 NQM=        3 NQMF=       0 NMMI=      0 NMMIF=      0
                NMic=       0 NMicF=      0.
                    Isotopes and Nuclear Properties:
 (Nuclear quadrupole moments (NQMom) in fm**2, nuclear magnetic moments (NMagM)
  in nuclear magnetons)

  Atom         1           2           3
 IAtWgt=          16           1           1
 AtmWgt=  15.9949146   1.0078250   1.0078250
 NucSpn=           0           1           1
 AtZEff=  -0.0000000  -0.0000000  -0.0000000
 NQMom=    0.0000000   0.0000000   0.0000000
 NMagM=    0.0000000   2.7928460   2.7928460
 AtZNuc=   8.0000000   1.0000000   1.0000000
 Leave Link  101 at Fri Sep  6 10:42:50 2024, MaxMem=  1073741824 cpu:               1.2 elap:               0.2
 (Enter /Users/asuyarger/Applications/G16/g16/l103.exe)

 GradGradGradGradGradGradGradGradGradGradGradGradGradGradGradGradGradGrad
 Berny optimization.
 Initialization pass.
                           ----------------------------
                           !    Initial Parameters    !
                           ! (Angstroms and Degrees)  !
 --------------------------                            --------------------------
 ! Name  Definition              Value          Derivative Info.                !
 --------------------------------------------------------------------------------
 ! R1    R(1,2)                  0.96           estimate D2E/DX2                !
 ! R2    R(1,3)                  0.96           estimate D2E/DX2                !
 ! A1    A(2,1,3)              109.4712         estimate D2E/DX2                !
 --------------------------------------------------------------------------------
 Trust Radius=3.00D-01 FncErr=1.00D-07 GrdErr=1.00D-06 EigMax=2.50D+02 EigMin=1.00D-04
 Number of steps in this run=     20 maximum allowed number of steps=    100.
 GradGradGradGradGradGradGradGradGradGradGradGradGradGradGradGradGradGrad

 Leave Link  103 at Fri Sep  6 10:42:50 2024, MaxMem=  1073741824 cpu:               0.1 elap:               0.0
 (Enter /Users/asuyarger/Applications/G16/g16/l202.exe)
                          Input orientation:                          
 ---------------------------------------------------------------------
 Center     Atomic      Atomic             Coordinates (Angstroms)
 Number     Number       Type             X           Y           Z
 ---------------------------------------------------------------------
      1          8           0       -0.316504    0.442931    0.004142
      2          1           0        0.643496    0.443172    0.004142
      3          1           0       -0.636732    1.347947    0.004142
 ---------------------------------------------------------------------
                    Distance matrix (angstroms):
                    1          2          3
     1  O    0.000000
     2  H    0.960000   0.000000
     3  H    0.960000   1.567673   0.000000
 Stoichiometry    H2O
 Framework group  C2V[C2(O),SGV(H2)]
 Deg. of freedom     2
 Full point group                 C2V     NOp   4
 Largest Abelian subgroup         C2V     NOp   4
 Largest concise Abelian subgroup C2      NOp   2
                         Standard orientation:                         
 ---------------------------------------------------------------------
 Center     Atomic      Atomic             Coordinates (Angstroms)
 Number     Number       Type             X           Y           Z
 ---------------------------------------------------------------------
      1          8           0        0.000000   -0.000000    0.110851
      2          1           0       -0.000000   -0.783837   -0.443405
      3          1           0        0.000000    0.783837   -0.443405
 ---------------------------------------------------------------------
 Rotational constants (GHZ):         919.0226998         408.0852142         282.5991552
 Leave Link  202 at Fri Sep  6 10:42:50 2024, MaxMem=  1073741824 cpu:               0.0 elap:               0.0
 (Enter /Users/asuyarger/Applications/G16/g16/l301.exe)
 Standard basis: Aug-CC-pVTZ (5D, 7F)
 Ernie: Thresh=  0.10000D-02 Tol=  0.10000D-05 Strict=F.
 Ernie:  3 primitive shells out of 52 were deleted.
 There are    42 symmetry adapted cartesian basis functions of A1  symmetry.
 There are    12 symmetry adapted cartesian basis functions of A2  symmetry.
 There are    20 symmetry adapted cartesian basis functions of B1  symmetry.
 There are    31 symmetry adapted cartesian basis functions of B2  symmetry.
 There are    35 symmetry adapted basis functions of A1  symmetry.
 There are    12 symmetry adapted basis functions of A2  symmetry.
 There are    18 symmetry adapted basis functions of B1  symmetry.
 There are    27 symmetry adapted basis functions of B2  symmetry.
    92 basis functions,   126 primitive gaussians,   105 cartesian basis functions
     5 alpha electrons        5 beta electrons
       nuclear repulsion energy         9.1571759434 Hartrees.
 IExCor=  402 DFT=T Ex+Corr=B3LYP ExCW=0 ScaHFX=  0.200000
 ScaDFX=  0.800000  0.720000  1.000000  0.810000 ScalE2=  1.000000  1.000000
 IRadAn=      5 IRanWt=     -1 IRanGd=            0 ICorTp=0 IEmpDi=  4
 NAtoms=    3 NActive=    3 NUniq=    2 SFac= 2.25D+00 NAtFMM=   60 NAOKFM=F Big=F
 Integral buffers will be    131072 words long.
 Raffenetti 2 integral format.
 Two-electron integral symmetry is turned on.
 Leave Link  301 at Fri Sep  6 10:42:50 2024, MaxMem=  1073741824 cpu:               0.1 elap:               0.0
 (Enter /Users/asuyarger/Applications/G16/g16/l302.exe)
 NPDir=0 NMtPBC=     1 NCelOv=     1 NCel=       1 NClECP=     1 NCelD=      1
         NCelK=      1 NCelE2=     1 NClLst=     1 CellRange=     0.0.
 One-electron integrals computed using PRISM.
 One-electron integral symmetry used in STVInt
 NBasis=    92 RedAO= T EigKep=  3.77D-04  NBF=    35    12    18    27
 NBsUse=    92 1.00D-06 EigRej= -1.00D+00 NBFU=    35    12    18    27
 Precomputing XC quadrature grid using
 IXCGrd= 4 IRadAn=           5 IRanWt=          -1 IRanGd=           0 AccXCQ= 0.00D+00.
 Generated NRdTot=       0 NPtTot=           0 NUsed=           0 NTot=          32
 NSgBfM=   105   105   105   105   105 MxSgAt=     3 MxSgA2=     3.
 Leave Link  302 at Fri Sep  6 10:42:50 2024, MaxMem=  1073741824 cpu:               0.7 elap:               0.1
 (Enter /Users/asuyarger/Applications/G16/g16/l303.exe)
 DipDrv:  MaxL=1.
 Leave Link  303 at Fri Sep  6 10:42:50 2024, MaxMem=  1073741824 cpu:               0.1 elap:               0.0
 (Enter /Users/asuyarger/Applications/G16/g16/l401.exe)
 ExpMin= 2.53D-02 ExpMax= 1.53D+04 ExpMxC= 5.22D+02 IAcc=3 IRadAn=         5 AccDes= 0.00D+00
 Harris functional with IExCor=  402 and IRadAn=       5 diagonalized for initial guess.
 HarFok:  IExCor=  402 AccDes= 0.00D+00 IRadAn=         5 IDoV= 1 UseB2=F ITyADJ=14
 ICtDFT=  3500011 ScaDFX=  1.000000  1.000000  1.000000  1.000000
 FoFCou: FMM=F IPFlag=           0 FMFlag=      100000 FMFlg1=           0
         NFxFlg=           0 DoJE=T BraDBF=F KetDBF=T FulRan=T
         wScrn=  0.000000 ICntrl=       500 IOpCl=  0 I1Cent=   200000004 NGrid=           0
         NMat0=    1 NMatS0=      1 NMatT0=    0 NMatD0=    1 NMtDS0=    0 NMtDT0=    0
 Petite list used in FoFCou.
 Harris En= -76.4989163046890    
 JPrj=0 DoOrth=F DoCkMO=F.
 Initial guess orbital symmetries:
       Occupied  (A1) (A1) (B2) (A1) (B1)
       Virtual   (A1) (B2) (A1) (B1) (A1) (B2) (B2) (A1) (A2) (A1)
                 (B1) (B2) (A1) (B2) (B2) (A1) (A1) (B1) (A2) (A1)
                 (A1) (B1) (B1) (B2) (A2) (B2) (A1) (B2) (A1) (B1)
                 (B2) (A1) (A2) (B2) (A2) (A1) (B1) (A1) (B2) (B2)
                 (A1) (B1) (A2) (A1) (A1) (B1) (B2) (A1) (B1) (B2)
                 (A1) (A2) (B2) (B2) (A1) (B1) (A2) (A1) (B2) (B1)
                 (A2) (B1) (B2) (A1) (A1) (B2) (B2) (A2) (A1) (B2)
                 (B1) (A1) (A1) (B2) (B1) (A1) (B1) (A1) (B1) (A2)
                 (A2) (B2) (A1) (B2) (A1) (B2) (A1)
 The electronic state of the initial guess is 1-A1.
 Leave Link  401 at Fri Sep  6 10:42:50 2024, MaxMem=  1073741824 cpu:               1.0 elap:               0.2
 (Enter /Users/asuyarger/Applications/G16/g16/l502.exe)
 Keep R1 ints in memory in symmetry-blocked form, NReq=16599705.
 FoFCou: FMM=F IPFlag=           0 FMFlag=           0 FMFlg1=           0
         NFxFlg=           0 DoJE=F BraDBF=F KetDBF=F FulRan=T
         wScrn=  0.000000 ICntrl=       600 IOpCl=  0 I1Cent=           0 NGrid=           0
         NMat0=    1 NMatS0=   4278 NMatT0=    0 NMatD0=    1 NMtDS0=    0 NMtDT0=    0
 Petite list used in FoFCou.
 Closed shell SCF:
 Using DIIS extrapolation, IDIIS=  1040.
 NGot=  1073741824 LenX=  1071374588 LenY=  1071363122
 Requested convergence on RMS density matrix=1.00D-08 within 128 cycles.
 Requested convergence on MAX density matrix=1.00D-06.
 Requested convergence on             energy=1.00D-06.
 No special actions if energy rises.

 Cycle   1  Pass 1  IDiag  1:
 E= -76.3812647160581    
 DIIS: error= 5.93D-02 at cycle   1 NSaved=   1.
 NSaved= 1 IEnMin= 1 EnMin= -76.3812647160581     IErMin= 1 ErrMin= 5.93D-02
 ErrMax= 5.93D-02  0.00D+00 EMaxC= 1.00D-01 BMatC= 1.27D-01 BMatP= 1.27D-01
 IDIUse=3 WtCom= 4.07D-01 WtEn= 5.93D-01
 Coeff-Com:  0.100D+01
 Coeff-En:   0.100D+01
 Coeff:      0.100D+01
 Gap=     0.130 Goal=   None    Shift=    0.000
 GapD=    0.130 DampG=1.000 DampE=0.500 DampFc=0.5000 IDamp=-1.
 Damping current iteration by 5.00D-01
 RMSDP=3.93D-03 MaxDP=7.57D-02              OVMax= 2.49D-01

 Cycle   2  Pass 1  IDiag  1:
 E= -76.3911220834095     Delta-E=       -0.009857367351 Rises=F Damp=T
 DIIS: error= 2.22D-02 at cycle   2 NSaved=   2.
 NSaved= 2 IEnMin= 2 EnMin= -76.3911220834095     IErMin= 2 ErrMin= 2.22D-02
 ErrMax= 2.22D-02  0.00D+00 EMaxC= 1.00D-01 BMatC= 1.88D-02 BMatP= 1.27D-01
 IDIUse=3 WtCom= 7.78D-01 WtEn= 2.22D-01
 Coeff-Com:  0.269D+00 0.731D+00
 Coeff-En:   0.452D+00 0.548D+00
 Coeff:      0.309D+00 0.691D+00
 Gap=     0.283 Goal=   None    Shift=    0.000
 RMSDP=6.94D-04 MaxDP=1.25D-02 DE=-9.86D-03 OVMax= 1.68D-01

 Cycle   3  Pass 1  IDiag  1:
 E= -76.4656539407836     Delta-E=       -0.074531857374 Rises=F Damp=F
 DIIS: error= 2.36D-03 at cycle   3 NSaved=   3.
 NSaved= 3 IEnMin= 3 EnMin= -76.4656539407836     IErMin= 3 ErrMin= 2.36D-03
 ErrMax= 2.36D-03  0.00D+00 EMaxC= 1.00D-01 BMatC= 2.09D-04 BMatP= 1.88D-02
 IDIUse=3 WtCom= 9.76D-01 WtEn= 2.36D-02
 Coeff-Com:  0.332D-01-0.855D-02 0.975D+00
 Coeff-En:   0.000D+00 0.000D+00 0.100D+01
 Coeff:      0.324D-01-0.835D-02 0.976D+00
 Gap=     0.297 Goal=   None    Shift=    0.000
 RMSDP=6.61D-05 MaxDP=1.90D-03 DE=-7.45D-02 OVMax= 2.07D-03

 Cycle   4  Pass 1  IDiag  1:
 E= -76.4657471420987     Delta-E=       -0.000093201315 Rises=F Damp=F
 DIIS: error= 6.62D-04 at cycle   4 NSaved=   4.
 NSaved= 4 IEnMin= 4 EnMin= -76.4657471420987     IErMin= 4 ErrMin= 6.62D-04
 ErrMax= 6.62D-04  0.00D+00 EMaxC= 1.00D-01 BMatC= 1.41D-05 BMatP= 2.09D-04
 IDIUse=3 WtCom= 9.93D-01 WtEn= 6.62D-03
 Coeff-Com:  0.858D-02-0.154D-01 0.164D+00 0.842D+00
 Coeff-En:   0.000D+00 0.000D+00 0.000D+00 0.100D+01
 Coeff:      0.852D-02-0.153D-01 0.163D+00 0.843D+00
 Gap=     0.299 Goal=   None    Shift=    0.000
 RMSDP=1.53D-05 MaxDP=3.10D-04 DE=-9.32D-05 OVMax= 9.30D-04

 Cycle   5  Pass 1  IDiag  1:
 E= -76.4657566150973     Delta-E=       -0.000009472999 Rises=F Damp=F
 DIIS: error= 1.17D-04 at cycle   5 NSaved=   5.
 NSaved= 5 IEnMin= 5 EnMin= -76.4657566150973     IErMin= 5 ErrMin= 1.17D-04
 ErrMax= 1.17D-04  0.00D+00 EMaxC= 1.00D-01 BMatC= 6.04D-07 BMatP= 1.41D-05
 IDIUse=3 WtCom= 9.99D-01 WtEn= 1.17D-03
 Coeff-Com:  0.272D-02-0.399D-02 0.241D-01 0.170D+00 0.807D+00
 Coeff-En:   0.000D+00 0.000D+00 0.000D+00 0.000D+00 0.100D+01
 Coeff:      0.272D-02-0.399D-02 0.241D-01 0.170D+00 0.807D+00
 Gap=     0.299 Goal=   None    Shift=    0.000
 RMSDP=3.75D-06 MaxDP=6.94D-05 DE=-9.47D-06 OVMax= 1.98D-04

 Cycle   6  Pass 1  IDiag  1:
 E= -76.4657570737559     Delta-E=       -0.000000458659 Rises=F Damp=F
 DIIS: error= 1.40D-05 at cycle   6 NSaved=   6.
 NSaved= 6 IEnMin= 6 EnMin= -76.4657570737559     IErMin= 6 ErrMin= 1.40D-05
 ErrMax= 1.40D-05  0.00D+00 EMaxC= 1.00D-01 BMatC= 5.87D-09 BMatP= 6.04D-07
 IDIUse=1 WtCom= 1.00D+00 WtEn= 0.00D+00
 Coeff-Com:  0.193D-04-0.157D-03 0.102D-02-0.151D-01-0.106D-01 0.102D+01
 Coeff:      0.193D-04-0.157D-03 0.102D-02-0.151D-01-0.106D-01 0.102D+01
 Gap=     0.299 Goal=   None    Shift=    0.000
 RMSDP=4.31D-07 MaxDP=1.01D-05 DE=-4.59D-07 OVMax= 2.61D-05

 Cycle   7  Pass 1  IDiag  1:
 E= -76.4657570783079     Delta-E=       -0.000000004552 Rises=F Damp=F
 DIIS: error= 6.69D-07 at cycle   7 NSaved=   7.
 NSaved= 7 IEnMin= 7 EnMin= -76.4657570783079     IErMin= 7 ErrMin= 6.69D-07
 ErrMax= 6.69D-07  0.00D+00 EMaxC= 1.00D-01 BMatC= 1.30D-11 BMatP= 5.87D-09
 IDIUse=1 WtCom= 1.00D+00 WtEn= 0.00D+00
 Coeff-Com: -0.763D-05 0.141D-04-0.638D-04-0.863D-04-0.474D-02-0.501D-01
 Coeff-Com:  0.105D+01
 Coeff:     -0.763D-05 0.141D-04-0.638D-04-0.863D-04-0.474D-02-0.501D-01
 Coeff:      0.105D+01
 Gap=     0.299 Goal=   None    Shift=    0.000
 RMSDP=2.86D-08 MaxDP=6.12D-07 DE=-4.55D-09 OVMax= 1.63D-06

 Cycle   8  Pass 1  IDiag  1:
 E= -76.4657570783193     Delta-E=       -0.000000000011 Rises=F Damp=F
 DIIS: error= 4.78D-08 at cycle   8 NSaved=   8.
 NSaved= 8 IEnMin= 8 EnMin= -76.4657570783193     IErMin= 8 ErrMin= 4.78D-08
 ErrMax= 4.78D-08  0.00D+00 EMaxC= 1.00D-01 BMatC= 1.04D-13 BMatP= 1.30D-11
 IDIUse=1 WtCom= 1.00D+00 WtEn= 0.00D+00
 Coeff-Com: -0.261D-06 0.113D-05-0.808D-05 0.883D-04 0.289D-03-0.525D-02
 Coeff-Com:  0.115D-01 0.993D+00
 Coeff:     -0.261D-06 0.113D-05-0.808D-05 0.883D-04 0.289D-03-0.525D-02
 Coeff:      0.115D-01 0.993D+00
 Gap=     0.299 Goal=   None    Shift=    0.000
 RMSDP=1.71D-09 MaxDP=4.21D-08 DE=-1.14D-11 OVMax= 1.46D-07

 SCF Done:  E(RB3LYP) =  -76.4657570783     A.U. after    8 cycles
            NFock=  8  Conv=0.17D-08     -V/T= 2.0060
 KE= 7.601089588755D+01 PE=-1.989973798827D+02 EE= 3.736355097341D+01
 Leave Link  502 at Fri Sep  6 10:42:51 2024, MaxMem=  1073741824 cpu:               2.7 elap:               0.4
 (Enter /Users/asuyarger/Applications/G16/g16/l601.exe)
 Copying SCF densities to generalized density rwf, IOpCl= 0 IROHF=0.

 **********************************************************************

            Population analysis using the SCF density.

 **********************************************************************

 Orbital symmetries:
       Occupied  (A1) (A1) (B2) (A1) (B1)
       Virtual   (A1) (B2) (A1) (B1) (A1) (B2) (B2) (A1) (A2) (B1)
                 (A1) (B2) (A1) (B2) (B2) (A1) (A1) (A2) (B1) (A1)
                 (B1) (A1) (B2) (B1) (A2) (B2) (A1) (A1) (B2) (B1)
                 (B2) (A1) (A2) (B2) (A2) (A1) (B1) (A1) (B2) (B2)
                 (A1) (B1) (A2) (A1) (A1) (B1) (B2) (A1) (B2) (B1)
                 (A1) (A2) (B2) (B2) (A1) (B1) (A2) (A1) (B2) (B1)
                 (A2) (B1) (A1) (B2) (A1) (B2) (B2) (A2) (A1) (B2)
                 (B1) (A1) (A1) (B2) (B1) (A1) (B1) (B1) (A1) (A2)
                 (A2) (B2) (A1) (B2) (A1) (B2) (A1)
 The electronic state is 1-A1.
 Alpha  occ. eigenvalues --  -19.13847  -1.01890  -0.54903  -0.39112  -0.32339
 Alpha virt. eigenvalues --   -0.02448   0.01888   0.07631   0.09491   0.10122
 Alpha virt. eigenvalues --    0.11480   0.15248   0.16865   0.18984   0.22442
 Alpha virt. eigenvalues --    0.22749   0.30598   0.32998   0.34951   0.47330
 Alpha virt. eigenvalues --    0.51431   0.57253   0.58762   0.58845   0.67868
 Alpha virt. eigenvalues --    0.71003   0.72840   0.76325   0.76516   0.78345
 Alpha virt. eigenvalues --    0.80383   0.82768   0.87992   0.88731   0.91526
 Alpha virt. eigenvalues --    0.98603   1.02931   1.03942   1.10372   1.33067
 Alpha virt. eigenvalues --    1.38492   1.39977   1.56661   1.57875   1.75533
 Alpha virt. eigenvalues --    1.85708   1.98559   2.05022   2.05665   2.12041
 Alpha virt. eigenvalues --    2.15530   2.16909   2.20769   2.43056   2.43874
 Alpha virt. eigenvalues --    2.47816   2.60985   2.61331   3.30204   3.43713
 Alpha virt. eigenvalues --    3.65325   3.70549   3.91666   3.92442   4.03765
 Alpha virt. eigenvalues --    4.07400   4.07738   4.13083   4.13845   4.27974
 Alpha virt. eigenvalues --    4.41253   4.77625   4.82037   4.92008   4.94602
 Alpha virt. eigenvalues --    5.09740   5.32883   5.68109   6.07495   6.24093
 Alpha virt. eigenvalues --    6.37447   6.64570   6.74969   6.75279   6.82624
 Alpha virt. eigenvalues --    6.83328   6.91572   7.04834   7.37765   7.45080
 Alpha virt. eigenvalues --    8.23416  15.00668
     Molecular Orbital Coefficients:
                           1         2         3         4         5
                        (A1)--O   (A1)--O   (B2)--O   (A1)--O   (B1)--O
     Eigenvalues --   -19.13847  -1.01890  -0.54903  -0.39112  -0.32339
   1 1   O  1S          0.97333  -0.20608   0.00000  -0.07194   0.00000
   2        2S         -0.00879   0.47115   0.00000   0.18069   0.00000
   3        3S          0.05113   0.14263   0.00000   0.05542   0.00000
   4        4S          0.00782   0.27723   0.00000   0.33653   0.00000
   5        5S          0.00220   0.03197   0.00000   0.11177   0.00000
   6        6PX         0.00000   0.00000   0.00000   0.00000   0.36538
   7        6PY         0.00000   0.00000   0.29925   0.00000   0.00000
   8        6PZ        -0.00146  -0.06248   0.00000   0.32555   0.00000
   9        7PX         0.00000   0.00000   0.00000   0.00000   0.43090
  10        7PY         0.00000   0.00000   0.32185   0.00000   0.00000
  11        7PZ        -0.00084  -0.07474   0.00000   0.36839   0.00000
  12        8PX         0.00000   0.00000   0.00000   0.00000   0.32001
  13        8PY         0.00000   0.00000   0.12957   0.00000   0.00000
  14        8PZ        -0.00074  -0.02044   0.00000   0.21382   0.00000
  15        9PX         0.00000   0.00000   0.00000   0.00000   0.05069
  16        9PY         0.00000   0.00000   0.00587   0.00000   0.00000
  17        9PZ        -0.00019  -0.00219   0.00000   0.02181   0.00000
  18       10D 0       -0.00002   0.00079   0.00000  -0.00560   0.00000
  19       10D+1        0.00000   0.00000   0.00000   0.00000  -0.00579
  20       10D-1        0.00000   0.00000  -0.01087   0.00000   0.00000
  21       10D+2       -0.00046  -0.00427   0.00000   0.00245   0.00000
  22       10D-2        0.00000   0.00000   0.00000   0.00000   0.00000
  23       11D 0        0.00014   0.00329   0.00000  -0.01544   0.00000
  24       11D+1        0.00000   0.00000   0.00000   0.00000  -0.01383
  25       11D-1        0.00000   0.00000  -0.01288   0.00000   0.00000
  26       11D+2        0.00016  -0.00774   0.00000  -0.00345   0.00000
  27       11D-2        0.00000   0.00000   0.00000   0.00000   0.00000
  28       12D 0        0.00011   0.00140   0.00000  -0.00603   0.00000
  29       12D+1        0.00000   0.00000   0.00000   0.00000  -0.00631
  30       12D-1        0.00000   0.00000   0.00703   0.00000   0.00000
  31       12D+2        0.00039   0.00278   0.00000  -0.01217   0.00000
  32       12D-2        0.00000   0.00000   0.00000   0.00000   0.00000
  33       13F 0        0.00018   0.00064   0.00000   0.00043   0.00000
  34       13F+1        0.00000   0.00000   0.00000   0.00000   0.00098
  35       13F-1        0.00000   0.00000  -0.00089   0.00000   0.00000
  36       13F+2        0.00035   0.00188   0.00000  -0.00222   0.00000
  37       13F-2        0.00000   0.00000   0.00000   0.00000   0.00000
  38       13F+3        0.00000   0.00000   0.00000   0.00000  -0.00336
  39       13F-3        0.00000   0.00000  -0.00217   0.00000   0.00000
  40       14F 0       -0.00054  -0.00127   0.00000   0.00158   0.00000
  41       14F+1        0.00000   0.00000   0.00000   0.00000   0.00070
  42       14F-1        0.00000   0.00000   0.00041   0.00000   0.00000
  43       14F+2       -0.00085  -0.00075   0.00000   0.00109   0.00000
  44       14F-2        0.00000   0.00000   0.00000   0.00000   0.00000
  45       14F+3        0.00000   0.00000   0.00000   0.00000  -0.00086
  46       14F-3        0.00000   0.00000  -0.00097   0.00000   0.00000
  47 2   H  1S          0.00086   0.09519  -0.14974  -0.08354   0.00000
  48        2S         -0.00213   0.08012  -0.23036  -0.17025   0.00000
  49        3S         -0.00229  -0.00908  -0.06418  -0.08182   0.00000
  50        4S         -0.00006  -0.00142   0.00248  -0.00345   0.00000
  51        5PX         0.00000   0.00000   0.00000   0.00000   0.01141
  52        5PY        -0.00020   0.01167  -0.01072  -0.00916   0.00000
  53        5PZ        -0.00005   0.00724  -0.01237   0.00320   0.00000
  54        6PX         0.00000   0.00000   0.00000   0.00000   0.03126
  55        6PY        -0.00164   0.00882  -0.01929  -0.02937   0.00000
  56        6PZ        -0.00096   0.00562  -0.02467   0.00459   0.00000
  57        7PX         0.00000   0.00000   0.00000   0.00000   0.02574
  58        7PY        -0.00072  -0.00447   0.00296  -0.00564   0.00000
  59        7PZ        -0.00057  -0.00328  -0.00220   0.01358   0.00000
  60        8D 0        0.00002  -0.00005  -0.00129   0.00242   0.00000
  61        8D+1        0.00000   0.00000   0.00000   0.00000   0.00281
  62        8D-1       -0.00085   0.00284  -0.00684  -0.00144   0.00000
  63        8D+2        0.00068  -0.00190   0.00391   0.00335   0.00000
  64        8D-2        0.00000   0.00000   0.00000   0.00000   0.00404
  65        9D 0       -0.00003   0.00003  -0.00122   0.00145   0.00000
  66        9D+1        0.00000   0.00000   0.00000   0.00000   0.00324
  67        9D-1       -0.00022  -0.00099  -0.00237   0.00192   0.00000
  68        9D+2        0.00011   0.00058  -0.00073   0.00244   0.00000
  69        9D-2        0.00000   0.00000   0.00000   0.00000   0.00549
  70 3   H  1S          0.00086   0.09519   0.14974  -0.08354   0.00000
  71        2S         -0.00213   0.08012   0.23036  -0.17025   0.00000
  72        3S         -0.00229  -0.00908   0.06418  -0.08182   0.00000
  73        4S         -0.00006  -0.00142  -0.00248  -0.00345   0.00000
  74        5PX         0.00000   0.00000   0.00000   0.00000   0.01141
  75        5PY         0.00020  -0.01167  -0.01072   0.00916   0.00000
  76        5PZ        -0.00005   0.00724   0.01237   0.00320   0.00000
  77        6PX         0.00000   0.00000   0.00000   0.00000   0.03126
  78        6PY         0.00164  -0.00882  -0.01929   0.02937   0.00000
  79        6PZ        -0.00096   0.00562   0.02467   0.00459   0.00000
  80        7PX         0.00000   0.00000   0.00000   0.00000   0.02574
  81        7PY         0.00072   0.00447   0.00296   0.00564   0.00000
  82        7PZ        -0.00057  -0.00328   0.00220   0.01358   0.00000
  83        8D 0        0.00002  -0.00005   0.00129   0.00242   0.00000
  84        8D+1        0.00000   0.00000   0.00000   0.00000   0.00281
  85        8D-1        0.00085  -0.00284  -0.00684   0.00144   0.00000
  86        8D+2        0.00068  -0.00190  -0.00391   0.00335   0.00000
  87        8D-2        0.00000   0.00000   0.00000   0.00000  -0.00404
  88        9D 0       -0.00003   0.00003   0.00122   0.00145   0.00000
  89        9D+1        0.00000   0.00000   0.00000   0.00000   0.00324
  90        9D-1        0.00022   0.00099  -0.00237  -0.00192   0.00000
  91        9D+2        0.00011   0.00058   0.00073   0.00244   0.00000
  92        9D-2        0.00000   0.00000   0.00000   0.00000  -0.00549
                           6         7         8         9        10
                        (A1)--V   (B2)--V   (A1)--V   (B1)--V   (A1)--V
     Eigenvalues --    -0.02448   0.01888   0.07631   0.09491   0.10122
   1 1   O  1S         -0.04901   0.00000   0.02625   0.00000   0.05494
   2        2S          0.12934   0.00000  -0.08300   0.00000  -0.14418
   3        3S          0.04270   0.00000  -0.03288   0.00000  -0.05932
   4        4S          0.39101   0.00000   1.38867   0.00000   0.71555
   5        5S          0.52298   0.00000   5.66219   0.00000   1.61273
   6        6PX         0.00000   0.00000   0.00000  -0.12408   0.00000
   7        6PY         0.00000   0.08105   0.00000   0.00000   0.00000
   8        6PZ        -0.07774   0.00000   0.12432   0.00000  -0.01473
   9        7PX         0.00000   0.00000   0.00000  -0.12889   0.00000
  10        7PY         0.00000   0.11347   0.00000   0.00000   0.00000
  11        7PZ        -0.10047   0.00000   0.07784   0.00000  -0.06056
  12        8PX         0.00000   0.00000   0.00000  -0.05717   0.00000
  13        8PY         0.00000   0.38509   0.00000   0.00000   0.00000
  14        8PZ        -0.17497   0.00000  -0.34684   0.00000  -0.36121
  15        9PX         0.00000   0.00000   0.00000   1.56561   0.00000
  16        9PY         0.00000   0.66051   0.00000   0.00000   0.00000
  17        9PZ         0.00406   0.00000  -1.41467   0.00000   1.21243
  18       10D 0        0.00109   0.00000  -0.00130   0.00000  -0.00199
  19       10D+1        0.00000   0.00000   0.00000  -0.00077   0.00000
  20       10D-1        0.00000  -0.00016   0.00000   0.00000   0.00000
  21       10D+2        0.00127   0.00000  -0.00103   0.00000   0.00016
  22       10D-2        0.00000   0.00000   0.00000   0.00000   0.00000
  23       11D 0        0.00485   0.00000  -0.00801   0.00000   0.01059
  24       11D+1        0.00000   0.00000   0.00000   0.02242   0.00000
  25       11D-1        0.00000  -0.01448   0.00000   0.00000   0.00000
  26       11D+2       -0.00501   0.00000  -0.03415   0.00000  -0.05432
  27       11D-2        0.00000   0.00000   0.00000   0.00000   0.00000
  28       12D 0       -0.00246   0.00000   0.04598   0.00000  -0.07360
  29       12D+1        0.00000   0.00000   0.00000  -0.13674   0.00000
  30       12D-1        0.00000  -0.08449   0.00000   0.00000   0.00000
  31       12D+2       -0.01347   0.00000  -0.06778   0.00000  -0.05461
  32       12D-2        0.00000   0.00000   0.00000   0.00000   0.00000
  33       13F 0       -0.00010   0.00000   0.00214   0.00000   0.00122
  34       13F+1        0.00000   0.00000   0.00000  -0.00156   0.00000
  35       13F-1        0.00000  -0.00017   0.00000   0.00000   0.00000
  36       13F+2        0.00027   0.00000   0.00273   0.00000   0.00294
  37       13F-2        0.00000   0.00000   0.00000   0.00000   0.00000
  38       13F+3        0.00000   0.00000   0.00000   0.00311   0.00000
  39       13F-3        0.00000  -0.00039   0.00000   0.00000   0.00000
  40       14F 0        0.00251   0.00000  -0.00056   0.00000   0.01248
  41       14F+1        0.00000   0.00000   0.00000   0.00514   0.00000
  42       14F-1        0.00000   0.00329   0.00000   0.00000   0.00000
  43       14F+2        0.00522   0.00000   0.00249   0.00000   0.01901
  44       14F-2        0.00000   0.00000   0.00000   0.00000   0.00000
  45       14F+3        0.00000   0.00000   0.00000  -0.00575   0.00000
  46       14F-3        0.00000  -0.00611   0.00000   0.00000   0.00000
  47 2   H  1S         -0.02074   0.00105   0.02265   0.00000   0.04801
  48        2S         -0.12179   0.16911  -0.24421   0.00000  -0.25916
  49        3S         -0.34286   0.82690  -2.37506   0.00000  -0.02594
  50        4S         -0.50736   2.61938  -0.95205   0.00000  -0.55108
  51        5PX         0.00000   0.00000   0.00000   0.00004   0.00000
  52        5PY         0.00743  -0.00329  -0.00588   0.00000  -0.01152
  53        5PZ         0.00302  -0.00406  -0.00333   0.00000  -0.00588
  54        6PX         0.00000   0.00000   0.00000  -0.01967   0.00000
  55        6PY         0.00084   0.02723  -0.21204   0.00000  -0.12555
  56        6PZ        -0.00162   0.02429  -0.12823   0.00000  -0.08644
  57        7PX         0.00000   0.00000   0.00000  -0.35811   0.00000
  58        7PY         0.00638   0.06750  -0.72583   0.00000  -0.47829
  59        7PZ        -0.00001   0.10861  -0.46192   0.00000  -0.45173
  60        8D 0       -0.00080  -0.00063  -0.00022   0.00000  -0.00051
  61        8D+1        0.00000   0.00000   0.00000   0.00119   0.00000
  62        8D-1        0.00035   0.00131  -0.01051   0.00000  -0.00821
  63        8D+2       -0.00098  -0.00177   0.00899   0.00000   0.00292
  64        8D-2        0.00000   0.00000   0.00000   0.00093   0.00000
  65        9D 0       -0.00128   0.00300   0.01845   0.00000  -0.00429
  66        9D+1        0.00000   0.00000   0.00000  -0.02646   0.00000
  67        9D-1       -0.00472   0.01499  -0.07349   0.00000  -0.05919
  68        9D+2        0.00526   0.00039   0.05751   0.00000   0.03837
  69        9D-2        0.00000   0.00000   0.00000  -0.05115   0.00000
  70 3   H  1S         -0.02074  -0.00105   0.02265   0.00000   0.04801
  71        2S         -0.12179  -0.16911  -0.24421   0.00000  -0.25916
  72        3S         -0.34286  -0.82690  -2.37506   0.00000  -0.02594
  73        4S         -0.50736  -2.61938  -0.95205   0.00000  -0.55108
  74        5PX         0.00000   0.00000   0.00000   0.00004   0.00000
  75        5PY        -0.00743  -0.00329   0.00588   0.00000   0.01152
  76        5PZ         0.00302   0.00406  -0.00333   0.00000  -0.00588
  77        6PX         0.00000   0.00000   0.00000  -0.01967   0.00000
  78        6PY        -0.00084   0.02723   0.21204   0.00000   0.12555
  79        6PZ        -0.00162  -0.02429  -0.12823   0.00000  -0.08644
  80        7PX         0.00000   0.00000   0.00000  -0.35811   0.00000
  81        7PY        -0.00638   0.06750   0.72583   0.00000   0.47829
  82        7PZ        -0.00001  -0.10861  -0.46192   0.00000  -0.45173
  83        8D 0       -0.00080   0.00063  -0.00022   0.00000  -0.00051
  84        8D+1        0.00000   0.00000   0.00000   0.00119   0.00000
  85        8D-1       -0.00035   0.00131   0.01051   0.00000   0.00821
  86        8D+2       -0.00098   0.00177   0.00899   0.00000   0.00292
  87        8D-2        0.00000   0.00000   0.00000  -0.00093   0.00000
  88        9D 0       -0.00128  -0.00300   0.01845   0.00000  -0.00429
  89        9D+1        0.00000   0.00000   0.00000  -0.02646   0.00000
  90        9D-1        0.00472   0.01499   0.07349   0.00000   0.05919
  91        9D+2        0.00526  -0.00039   0.05751   0.00000   0.03837
  92        9D-2        0.00000   0.00000   0.00000   0.05115   0.00000
                          11        12        13        14        15
                        (B2)--V   (B2)--V   (A1)--V   (A2)--V   (B1)--V
     Eigenvalues --     0.11480   0.15248   0.16865   0.18984   0.22442
   1 1   O  1S          0.00000   0.00000   0.00132   0.00000   0.00000
   2        2S          0.00000   0.00000  -0.03278   0.00000   0.00000
   3        3S          0.00000   0.00000  -0.01485   0.00000   0.00000
   4        4S          0.00000   0.00000   0.59734   0.00000   0.00000
   5        5S          0.00000   0.00000   4.13003   0.00000   0.00000
   6        6PX         0.00000   0.00000   0.00000   0.00000   0.09423
   7        6PY        -0.16376   0.02850   0.00000   0.00000   0.00000
   8        6PZ         0.00000   0.00000  -0.01508   0.00000   0.00000
   9        7PX         0.00000   0.00000   0.00000   0.00000   0.07083
  10        7PY        -0.10097   0.05172   0.00000   0.00000   0.00000
  11        7PZ         0.00000   0.00000  -0.04215   0.00000   0.00000
  12        8PX         0.00000   0.00000   0.00000   0.00000   1.64533
  13        8PY         0.83739   1.26487   0.00000   0.00000   0.00000
  14        8PZ         0.00000   0.00000   0.26005   0.00000   0.00000
  15        9PX         0.00000   0.00000   0.00000   0.00000   2.07612
  16        9PY         2.20650   2.86013   0.00000   0.00000   0.00000
  17        9PZ         0.00000   0.00000   0.38419   0.00000   0.00000
  18       10D 0        0.00000   0.00000   0.00555   0.00000   0.00000
  19       10D+1        0.00000   0.00000   0.00000   0.00000   0.00673
  20       10D-1       -0.00008   0.00736   0.00000   0.00000   0.00000
  21       10D+2        0.00000   0.00000   0.00594   0.00000   0.00000
  22       10D-2        0.00000   0.00000   0.00000  -0.00648   0.00000
  23       11D 0        0.00000   0.00000  -0.01249   0.00000   0.00000
  24       11D+1        0.00000   0.00000   0.00000   0.00000  -0.02321
  25       11D-1       -0.06732  -0.01963   0.00000   0.00000   0.00000
  26       11D+2        0.00000   0.00000  -0.01782   0.00000   0.00000
  27       11D-2        0.00000   0.00000   0.00000   0.00705   0.00000
  28       12D 0        0.00000   0.00000  -0.42206   0.00000   0.00000
  29       12D+1        0.00000   0.00000   0.00000   0.00000  -0.42143
  30       12D-1       -0.15810  -0.61835   0.00000   0.00000   0.00000
  31       12D+2        0.00000   0.00000  -0.41463   0.00000   0.00000
  32       12D-2        0.00000   0.00000   0.00000   0.53966   0.00000
  33       13F 0        0.00000   0.00000  -0.00309   0.00000   0.00000
  34       13F+1        0.00000   0.00000   0.00000   0.00000  -0.00473
  35       13F-1        0.00414  -0.00413   0.00000   0.00000   0.00000
  36       13F+2        0.00000   0.00000  -0.00027   0.00000   0.00000
  37       13F-2        0.00000   0.00000   0.00000   0.00897   0.00000
  38       13F+3        0.00000   0.00000   0.00000   0.00000   0.00652
  39       13F-3        0.00011   0.00272   0.00000   0.00000   0.00000
  40       14F 0        0.00000   0.00000   0.03983   0.00000   0.00000
  41       14F+1        0.00000   0.00000   0.00000   0.00000   0.03094
  42       14F-1       -0.00703   0.03809   0.00000   0.00000   0.00000
  43       14F+2        0.00000   0.00000   0.02257   0.00000   0.00000
  44       14F-2        0.00000   0.00000   0.00000  -0.07339   0.00000
  45       14F+3        0.00000   0.00000   0.00000   0.00000  -0.07347
  46       14F-3       -0.01619  -0.02919   0.00000   0.00000   0.00000
  47 2   H  1S         -0.03561   0.05249  -0.04144   0.00000   0.00000
  48        2S          0.40092   0.90448  -0.38124   0.00000   0.00000
  49        3S          2.75613   2.24768  -1.99047   0.00000   0.00000
  50        4S          3.22005   1.57676  -0.27219   0.00000   0.00000
  51        5PX         0.00000   0.00000   0.00000   0.00120   0.00379
  52        5PY         0.01137   0.00433  -0.00340   0.00000   0.00000
  53        5PZ         0.00967  -0.00591   0.00158   0.00000   0.00000
  54        6PX         0.00000   0.00000   0.00000   0.24035  -0.28915
  55        6PY         0.18632   0.11849   0.05591   0.00000   0.00000
  56        6PZ         0.19184   0.05797  -0.25087   0.00000   0.00000
  57        7PX         0.00000   0.00000   0.00000   1.60069  -1.84044
  58        7PY         0.99129  -0.31521   0.54735   0.00000   0.00000
  59        7PZ         0.99545  -0.22445  -1.00230   0.00000   0.00000
  60        8D 0        0.00145  -0.00095  -0.00137   0.00000   0.00000
  61        8D+1        0.00000   0.00000   0.00000   0.00148  -0.00487
  62        8D-1        0.01254   0.00587  -0.01200   0.00000   0.00000
  63        8D+2       -0.00883  -0.00778  -0.00049   0.00000   0.00000
  64        8D-2        0.00000   0.00000   0.00000   0.00427  -0.00525
  65        9D 0        0.04578  -0.02049  -0.16572   0.00000   0.00000
  66        9D+1        0.00000   0.00000   0.00000   0.17060  -0.13034
  67        9D-1        0.09431  -0.05593  -0.04555   0.00000   0.00000
  68        9D+2       -0.01951   0.10420  -0.07805   0.00000   0.00000
  69        9D-2        0.00000   0.00000   0.00000   0.19068  -0.27541
  70 3   H  1S          0.03561  -0.05249  -0.04144   0.00000   0.00000
  71        2S         -0.40092  -0.90448  -0.38124   0.00000   0.00000
  72        3S         -2.75613  -2.24768  -1.99047   0.00000   0.00000
  73        4S         -3.22005  -1.57676  -0.27219   0.00000   0.00000
  74        5PX         0.00000   0.00000   0.00000  -0.00120   0.00379
  75        5PY         0.01137   0.00433   0.00340   0.00000   0.00000
  76        5PZ        -0.00967   0.00591   0.00158   0.00000   0.00000
  77        6PX         0.00000   0.00000   0.00000  -0.24035  -0.28915
  78        6PY         0.18632   0.11849  -0.05591   0.00000   0.00000
  79        6PZ        -0.19184  -0.05797  -0.25087   0.00000   0.00000
  80        7PX         0.00000   0.00000   0.00000  -1.60069  -1.84044
  81        7PY         0.99129  -0.31521  -0.54735   0.00000   0.00000
  82        7PZ        -0.99545   0.22445  -1.00230   0.00000   0.00000
  83        8D 0       -0.00145   0.00095  -0.00137   0.00000   0.00000
  84        8D+1        0.00000   0.00000   0.00000  -0.00148  -0.00487
  85        8D-1        0.01254   0.00587   0.01200   0.00000   0.00000
  86        8D+2        0.00883   0.00778  -0.00049   0.00000   0.00000
  87        8D-2        0.00000   0.00000   0.00000   0.00427   0.00525
  88        9D 0       -0.04578   0.02049  -0.16572   0.00000   0.00000
  89        9D+1        0.00000   0.00000   0.00000  -0.17060  -0.13034
  90        9D-1        0.09431  -0.05593   0.04555   0.00000   0.00000
  91        9D+2        0.01951  -0.10420  -0.07805   0.00000   0.00000
  92        9D-2        0.00000   0.00000   0.00000   0.19068   0.27541
                          16        17        18        19        20
                        (A1)--V   (B2)--V   (A1)--V   (B2)--V   (B2)--V
     Eigenvalues --     0.22749   0.30598   0.32998   0.34951   0.47330
   1 1   O  1S          0.00928   0.00000  -0.06926   0.00000   0.00000
   2        2S         -0.05557   0.00000   0.20320   0.00000   0.00000
   3        3S         -0.03708   0.00000   0.06863   0.00000   0.00000
   4        4S          1.47504   0.00000   4.46114   0.00000   0.00000
   5        5S          7.23388   0.00000   9.35549   0.00000   0.00000
   6        6PX         0.00000   0.00000   0.00000   0.00000   0.00000
   7        6PY         0.00000  -0.03494   0.00000   0.20031  -0.03560
   8        6PZ        -0.10884   0.00000  -0.11257   0.00000   0.00000
   9        7PX         0.00000   0.00000   0.00000   0.00000   0.00000
  10        7PY         0.00000  -0.01719   0.00000   0.46530   0.09739
  11        7PZ        -0.19790   0.00000  -0.30955   0.00000   0.00000
  12        8PX         0.00000   0.00000   0.00000   0.00000   0.00000
  13        8PY         0.00000  -1.15473   0.00000   2.03305   4.11338
  14        8PZ        -2.14437   0.00000  -0.52117   0.00000   0.00000
  15        9PX         0.00000   0.00000   0.00000   0.00000   0.00000
  16        9PY         0.00000  -3.58426   0.00000   2.29147   3.03791
  17        9PZ        -2.59109   0.00000  -0.53245   0.00000   0.00000
  18       10D 0       -0.00513   0.00000   0.00322   0.00000   0.00000
  19       10D+1        0.00000   0.00000   0.00000   0.00000   0.00000
  20       10D-1        0.00000   0.00231   0.00000   0.00859  -0.01159
  21       10D+2        0.00542   0.00000   0.00585   0.00000   0.00000
  22       10D-2        0.00000   0.00000   0.00000   0.00000   0.00000
  23       11D 0        0.03155   0.00000   0.00860   0.00000   0.00000
  24       11D+1        0.00000   0.00000   0.00000   0.00000   0.00000
  25       11D-1        0.00000  -0.00656   0.00000  -0.10655  -0.24619
  26       11D+2       -0.05432   0.00000  -0.04642   0.00000   0.00000
  27       11D-2        0.00000   0.00000   0.00000   0.00000   0.00000
  28       12D 0        0.36697   0.00000  -0.00762   0.00000   0.00000
  29       12D+1        0.00000   0.00000   0.00000   0.00000   0.00000
  30       12D-1        0.00000   0.07582   0.00000   0.31573  -2.26654
  31       12D+2       -0.19229   0.00000   0.34455   0.00000   0.00000
  32       12D-2        0.00000   0.00000   0.00000   0.00000   0.00000
  33       13F 0        0.00549   0.00000   0.00353   0.00000   0.00000
  34       13F+1        0.00000   0.00000   0.00000   0.00000   0.00000
  35       13F-1        0.00000  -0.00774   0.00000   0.00873  -0.00640
  36       13F+2       -0.00024   0.00000   0.01191   0.00000   0.00000
  37       13F-2        0.00000   0.00000   0.00000   0.00000   0.00000
  38       13F+3        0.00000   0.00000   0.00000   0.00000   0.00000
  39       13F-3        0.00000  -0.00425   0.00000  -0.00694   0.00292
  40       14F 0       -0.01208   0.00000  -0.01588   0.00000   0.00000
  41       14F+1        0.00000   0.00000   0.00000   0.00000   0.00000
  42       14F-1        0.00000   0.05966   0.00000  -0.06051   0.14475
  43       14F+2        0.06212   0.00000  -0.05652   0.00000   0.00000
  44       14F-2        0.00000   0.00000   0.00000   0.00000   0.00000
  45       14F+3        0.00000   0.00000   0.00000   0.00000   0.00000
  46       14F-3        0.00000   0.03759   0.00000  -0.01059  -0.08483
  47 2   H  1S         -0.02674   0.00999  -0.06168   0.06498  -0.12294
  48        2S         -1.11649  -0.37239  -0.23772   0.67376   2.33676
  49        3S         -3.74811   2.47764  -5.36415   8.82603   8.66171
  50        4S         -0.36349  -0.93958  -0.75173   2.05008   1.33763
  51        5PX         0.00000   0.00000   0.00000   0.00000   0.00000
  52        5PY         0.00458  -0.00048   0.01680  -0.00587   0.01195
  53        5PZ        -0.00760   0.00019   0.00868  -0.00735   0.00528
  54        6PX         0.00000   0.00000   0.00000   0.00000   0.00000
  55        6PY        -0.42981   0.15531  -0.26082   0.28245   0.58997
  56        6PZ        -0.02674  -0.16369  -0.20158   0.31807   0.38173
  57        7PX         0.00000   0.00000   0.00000   0.00000   0.00000
  58        7PY        -0.37691   3.80661  -2.20947   3.29064   1.96434
  59        7PZ         0.90169  -1.76661  -1.69616   2.07097   0.43564
  60        8D 0        0.00261  -0.00460  -0.00588   0.00255  -0.00398
  61        8D+1        0.00000   0.00000   0.00000   0.00000   0.00000
  62        8D-1       -0.01518   0.00789  -0.01214   0.02449   0.02488
  63        8D+2        0.02061   0.00457   0.00577  -0.01418  -0.02535
  64        8D-2        0.00000   0.00000   0.00000   0.00000   0.00000
  65        9D 0        0.09521  -0.26656   0.04505   0.08456  -0.16284
  66        9D+1        0.00000   0.00000   0.00000   0.00000   0.00000
  67        9D-1        0.11613  -0.12433  -0.33955   0.28813  -0.18449
  68        9D+2        0.05709  -0.32842   0.22620  -0.18388   0.12903
  69        9D-2        0.00000   0.00000   0.00000   0.00000   0.00000
  70 3   H  1S         -0.02674  -0.00999  -0.06168  -0.06498   0.12294
  71        2S         -1.11649   0.37239  -0.23772  -0.67376  -2.33676
  72        3S         -3.74811  -2.47764  -5.36415  -8.82603  -8.66171
  73        4S         -0.36349   0.93958  -0.75173  -2.05008  -1.33763
  74        5PX         0.00000   0.00000   0.00000   0.00000   0.00000
  75        5PY        -0.00458  -0.00048  -0.01680  -0.00587   0.01195
  76        5PZ        -0.00760  -0.00019   0.00868   0.00735  -0.00528
  77        6PX         0.00000   0.00000   0.00000   0.00000   0.00000
  78        6PY         0.42981   0.15531   0.26082   0.28245   0.58997
  79        6PZ        -0.02674   0.16369  -0.20158  -0.31807  -0.38173
  80        7PX         0.00000   0.00000   0.00000   0.00000   0.00000
  81        7PY         0.37691   3.80661   2.20947   3.29064   1.96434
  82        7PZ         0.90169   1.76661  -1.69616  -2.07097  -0.43564
  83        8D 0        0.00261   0.00460  -0.00588  -0.00255   0.00398
  84        8D+1        0.00000   0.00000   0.00000   0.00000   0.00000
  85        8D-1        0.01518   0.00789   0.01214   0.02449   0.02488
  86        8D+2        0.02061  -0.00457   0.00577   0.01418   0.02535
  87        8D-2        0.00000   0.00000   0.00000   0.00000   0.00000
  88        9D 0        0.09521   0.26656   0.04505  -0.08456   0.16284
  89        9D+1        0.00000   0.00000   0.00000   0.00000   0.00000
  90        9D-1       -0.11613  -0.12433   0.33955   0.28813  -0.18449
  91        9D+2        0.05709   0.32842   0.22620   0.18388  -0.12903
  92        9D-2        0.00000   0.00000   0.00000   0.00000   0.00000
                          21        22        23        24        25
                        (A1)--V   (A1)--V   (A2)--V   (B1)--V   (A1)--V
     Eigenvalues --     0.51431   0.57253   0.58762   0.58845   0.67868
   1 1   O  1S         -0.00153   0.01164   0.00000   0.00000   0.03190
   2        2S         -0.08693  -0.07599   0.00000   0.00000  -0.08029
   3        3S         -0.02437  -0.02355   0.00000   0.00000  -0.00269
   4        4S          2.06464   0.85702   0.00000   0.00000  -1.89360
   5        5S          7.37930   2.49469   0.00000   0.00000   1.96601
   6        6PX         0.00000   0.00000   0.00000   0.05229   0.00000
   7        6PY         0.00000   0.00000   0.00000   0.00000   0.00000
   8        6PZ        -0.01438  -0.00252   0.00000   0.00000   0.05359
   9        7PX         0.00000   0.00000   0.00000   0.12696   0.00000
  10        7PY         0.00000   0.00000   0.00000   0.00000   0.00000
  11        7PZ        -0.12041  -0.08707   0.00000   0.00000   0.14887
  12        8PX         0.00000   0.00000   0.00000   1.26076   0.00000
  13        8PY         0.00000   0.00000   0.00000   0.00000   0.00000
  14        8PZ         0.72781  -1.86534   0.00000   0.00000   0.28340
  15        9PX         0.00000   0.00000   0.00000   1.48332   0.00000
  16        9PY         0.00000   0.00000   0.00000   0.00000   0.00000
  17        9PZ        -0.87339  -1.76003   0.00000   0.00000  -0.79817
  18       10D 0        0.00313   0.02200   0.00000   0.00000  -0.00281
  19       10D+1        0.00000   0.00000   0.00000  -0.03056   0.00000
  20       10D-1        0.00000   0.00000   0.00000   0.00000   0.00000
  21       10D+2       -0.02143  -0.01569   0.00000   0.00000  -0.00448
  22       10D-2        0.00000   0.00000   0.01659   0.00000   0.00000
  23       11D 0       -0.09989   0.03568   0.00000   0.00000   0.09096
  24       11D+1        0.00000   0.00000   0.00000   0.02034   0.00000
  25       11D-1        0.00000   0.00000   0.00000   0.00000   0.00000
  26       11D+2       -0.09434   0.04630   0.00000   0.00000   0.09258
  27       11D-2        0.00000   0.00000   0.11138   0.00000   0.00000
  28       12D 0       -0.86581   1.51397   0.00000   0.00000   0.98015
  29       12D+1        0.00000   0.00000   0.00000  -1.25487   0.00000
  30       12D-1        0.00000   0.00000   0.00000   0.00000   0.00000
  31       12D+2       -1.22488   0.00192   0.00000   0.00000   1.27504
  32       12D-2        0.00000   0.00000   2.02493   0.00000   0.00000
  33       13F 0       -0.00256  -0.00030   0.00000   0.00000   0.02277
  34       13F+1        0.00000   0.00000   0.00000   0.00335   0.00000
  35       13F-1        0.00000   0.00000   0.00000   0.00000   0.00000
  36       13F+2        0.00580  -0.00520   0.00000   0.00000   0.01657
  37       13F-2        0.00000   0.00000   0.02029   0.00000   0.00000
  38       13F+3        0.00000   0.00000   0.00000   0.01650   0.00000
  39       13F-3        0.00000   0.00000   0.00000   0.00000   0.00000
  40       14F 0        0.07406  -0.04040   0.00000   0.00000  -0.20666
  41       14F+1        0.00000   0.00000   0.00000   0.00765   0.00000
  42       14F-1        0.00000   0.00000   0.00000   0.00000   0.00000
  43       14F+2        0.02828   0.03132   0.00000   0.00000  -0.16672
  44       14F-2        0.00000   0.00000  -0.22373   0.00000   0.00000
  45       14F+3        0.00000   0.00000   0.00000  -0.11516   0.00000
  46       14F-3        0.00000   0.00000   0.00000   0.00000   0.00000
  47 2   H  1S          0.09924   0.03901   0.00000   0.00000   0.09973
  48        2S         -0.06782  -0.42347   0.00000   0.00000   2.31207
  49        3S         -4.68997  -1.58404   0.00000   0.00000  -1.69686
  50        4S         -0.25244  -0.03756   0.00000   0.00000  -0.01665
  51        5PX         0.00000   0.00000  -0.03776   0.02514   0.00000
  52        5PY        -0.01418   0.02869   0.00000   0.00000   0.02865
  53        5PZ         0.03264  -0.02485   0.00000   0.00000   0.00431
  54        6PX         0.00000   0.00000   0.56064  -0.30524   0.00000
  55        6PY        -0.09804  -0.38210   0.00000   0.00000  -0.15792
  56        6PZ        -0.51899   0.20991   0.00000   0.00000   0.38688
  57        7PX         0.00000   0.00000   1.70317  -1.28100   0.00000
  58        7PY         0.00264  -0.51145   0.00000   0.00000  -0.56692
  59        7PZ        -1.12933   1.07791   0.00000   0.00000   0.23497
  60        8D 0       -0.00470  -0.00512   0.00000   0.00000   0.02239
  61        8D+1        0.00000   0.00000   0.00846   0.00274   0.00000
  62        8D-1       -0.02352   0.00499   0.00000   0.00000   0.00834
  63        8D+2        0.00145   0.01368   0.00000   0.00000   0.01953
  64        8D-2        0.00000   0.00000   0.01743  -0.00414   0.00000
  65        9D 0       -0.37986   0.49206   0.00000   0.00000   0.04575
  66        9D+1        0.00000   0.00000   0.43078  -0.37193   0.00000
  67        9D-1       -0.13619   0.03124   0.00000   0.00000   0.36039
  68        9D+2       -0.21765   0.12221   0.00000   0.00000   0.18798
  69        9D-2        0.00000   0.00000   0.62570  -0.16072   0.00000
  70 3   H  1S          0.09924   0.03901   0.00000   0.00000   0.09973
  71        2S         -0.06782  -0.42347   0.00000   0.00000   2.31207
  72        3S         -4.68997  -1.58404   0.00000   0.00000  -1.69686
  73        4S         -0.25244  -0.03756   0.00000   0.00000  -0.01665
  74        5PX         0.00000   0.00000   0.03776   0.02514   0.00000
  75        5PY         0.01418  -0.02869   0.00000   0.00000  -0.02865
  76        5PZ         0.03264  -0.02485   0.00000   0.00000   0.00431
  77        6PX         0.00000   0.00000  -0.56064  -0.30524   0.00000
  78        6PY         0.09804   0.38210   0.00000   0.00000   0.15792
  79        6PZ        -0.51899   0.20991   0.00000   0.00000   0.38688
  80        7PX         0.00000   0.00000  -1.70317  -1.28100   0.00000
  81        7PY        -0.00264   0.51145   0.00000   0.00000   0.56692
  82        7PZ        -1.12933   1.07791   0.00000   0.00000   0.23497
  83        8D 0       -0.00470  -0.00512   0.00000   0.00000   0.02239
  84        8D+1        0.00000   0.00000  -0.00846   0.00274   0.00000
  85        8D-1        0.02352  -0.00499   0.00000   0.00000  -0.00834
  86        8D+2        0.00145   0.01368   0.00000   0.00000   0.01953
  87        8D-2        0.00000   0.00000   0.01743   0.00414   0.00000
  88        9D 0       -0.37986   0.49206   0.00000   0.00000   0.04575
  89        9D+1        0.00000   0.00000  -0.43078  -0.37193   0.00000
  90        9D-1        0.13619  -0.03124   0.00000   0.00000  -0.36039
  91        9D+2       -0.21765   0.12221   0.00000   0.00000   0.18798
  92        9D-2        0.00000   0.00000   0.62570   0.16072   0.00000
                          26        27        28        29        30
                        (B1)--V   (A1)--V   (B2)--V   (B1)--V   (A2)--V
     Eigenvalues --     0.71003   0.72840   0.76325   0.76516   0.78345
   1 1   O  1S          0.00000  -0.04951   0.00000   0.00000   0.00000
   2        2S          0.00000   0.04148   0.00000   0.00000   0.00000
   3        3S          0.00000  -0.06431   0.00000   0.00000   0.00000
   4        4S          0.00000   9.28575   0.00000   0.00000   0.00000
   5        5S          0.00000   9.63446   0.00000   0.00000   0.00000
   6        6PX        -0.16207   0.00000   0.00000  -0.18704   0.00000
   7        6PY         0.00000   0.00000   0.11491   0.00000   0.00000
   8        6PZ         0.00000   0.26896   0.00000   0.00000   0.00000
   9        7PX        -0.30926   0.00000   0.00000  -0.45476   0.00000
  10        7PY         0.00000   0.00000   0.16261   0.00000   0.00000
  11        7PZ         0.00000  -0.00231   0.00000   0.00000   0.00000
  12        8PX         3.97303   0.00000   0.00000   2.08494   0.00000
  13        8PY         0.00000   0.00000   0.60553   0.00000   0.00000
  14        8PZ         0.00000  -6.52424   0.00000   0.00000   0.00000
  15        9PX         1.01285   0.00000   0.00000   0.09582   0.00000
  16        9PY         0.00000   0.00000  -0.54910   0.00000   0.00000
  17        9PZ         0.00000  -1.30409   0.00000   0.00000   0.00000
  18       10D 0        0.00000  -0.01527   0.00000   0.00000   0.00000
  19       10D+1        0.00999   0.00000   0.00000   0.01906   0.00000
  20       10D-1        0.00000   0.00000  -0.00681   0.00000   0.00000
  21       10D+2        0.00000   0.01143   0.00000   0.00000   0.00000
  22       10D-2        0.00000   0.00000   0.00000   0.00000  -0.02369
  23       11D 0        0.00000   0.09041   0.00000   0.00000   0.00000
  24       11D+1       -0.13543   0.00000   0.00000  -0.11238   0.00000
  25       11D-1        0.00000   0.00000   0.03214   0.00000   0.00000
  26       11D+2        0.00000  -0.37565   0.00000   0.00000   0.00000
  27       11D-2        0.00000   0.00000   0.00000   0.00000   0.11281
  28       12D 0        0.00000   0.66874   0.00000   0.00000   0.00000
  29       12D+1       -1.47933   0.00000   0.00000   0.56871   0.00000
  30       12D-1        0.00000   0.00000  -1.37627   0.00000   0.00000
  31       12D+2        0.00000  -1.32940   0.00000   0.00000   0.00000
  32       12D-2        0.00000   0.00000   0.00000   0.00000   0.21220
  33       13F 0        0.00000   0.01733   0.00000   0.00000   0.00000
  34       13F+1       -0.02115   0.00000   0.00000   0.02059   0.00000
  35       13F-1        0.00000   0.00000  -0.01538   0.00000   0.00000
  36       13F+2        0.00000   0.00591   0.00000   0.00000   0.00000
  37       13F-2        0.00000   0.00000   0.00000   0.00000  -0.00124
  38       13F+3        0.00789   0.00000   0.00000   0.02093   0.00000
  39       13F-3        0.00000   0.00000   0.02305   0.00000   0.00000
  40       14F 0        0.00000   0.05010   0.00000   0.00000   0.00000
  41       14F+1        0.13160   0.00000   0.00000  -0.08175   0.00000
  42       14F-1        0.00000   0.00000   0.14983   0.00000   0.00000
  43       14F+2        0.00000   0.27558   0.00000   0.00000   0.00000
  44       14F-2        0.00000   0.00000   0.00000   0.00000  -0.00847
  45       14F+3       -0.14477   0.00000   0.00000  -0.17398   0.00000
  46       14F-3        0.00000   0.00000  -0.08735   0.00000   0.00000
  47 2   H  1S          0.00000   0.05529   0.04205   0.00000   0.00000
  48        2S          0.00000  -4.65690   1.73429   0.00000   0.00000
  49        3S          0.00000  -5.72295  -1.56386   0.00000   0.00000
  50        4S          0.00000  -0.42866  -0.08004   0.00000   0.00000
  51        5PX         0.03836   0.00000   0.00000  -0.00210  -0.00232
  52        5PY         0.00000  -0.02811   0.00667   0.00000   0.00000
  53        5PZ         0.00000  -0.05088   0.00662   0.00000   0.00000
  54        6PX        -0.63691   0.00000   0.00000  -0.25946  -0.00080
  55        6PY         0.00000  -1.60335  -0.03653   0.00000   0.00000
  56        6PZ         0.00000  -0.65268  -0.30152   0.00000   0.00000
  57        7PX        -1.62320   0.00000   0.00000  -0.58400   0.56606
  58        7PY         0.00000  -1.12526  -0.09426   0.00000   0.00000
  59        7PZ         0.00000  -0.07033  -0.66620   0.00000   0.00000
  60        8D 0        0.00000   0.00735  -0.02881   0.00000   0.00000
  61        8D+1       -0.02236   0.00000   0.00000  -0.00836  -0.02777
  62        8D-1        0.00000  -0.07244  -0.01690   0.00000   0.00000
  63        8D+2        0.00000   0.05622   0.01926   0.00000   0.00000
  64        8D-2       -0.00949   0.00000   0.00000  -0.03057   0.00158
  65        9D 0        0.00000   0.21891   0.27537   0.00000   0.00000
  66        9D+1       -0.23706   0.00000   0.00000  -0.73940   0.92974
  67        9D-1        0.00000   0.15390  -0.15455   0.00000   0.00000
  68        9D+2        0.00000   0.34485  -0.41744   0.00000   0.00000
  69        9D-2       -1.12037   0.00000   0.00000   0.13617   0.41172
  70 3   H  1S          0.00000   0.05529  -0.04205   0.00000   0.00000
  71        2S          0.00000  -4.65690  -1.73429   0.00000   0.00000
  72        3S          0.00000  -5.72295   1.56386   0.00000   0.00000
  73        4S          0.00000  -0.42866   0.08004   0.00000   0.00000
  74        5PX         0.03836   0.00000   0.00000  -0.00210   0.00232
  75        5PY         0.00000   0.02811   0.00667   0.00000   0.00000
  76        5PZ         0.00000  -0.05088  -0.00662   0.00000   0.00000
  77        6PX        -0.63691   0.00000   0.00000  -0.25946   0.00080
  78        6PY         0.00000   1.60335  -0.03653   0.00000   0.00000
  79        6PZ         0.00000  -0.65268   0.30152   0.00000   0.00000
  80        7PX        -1.62320   0.00000   0.00000  -0.58400  -0.56606
  81        7PY         0.00000   1.12526  -0.09426   0.00000   0.00000
  82        7PZ         0.00000  -0.07033   0.66620   0.00000   0.00000
  83        8D 0        0.00000   0.00735   0.02881   0.00000   0.00000
  84        8D+1       -0.02236   0.00000   0.00000  -0.00836   0.02777
  85        8D-1        0.00000   0.07244  -0.01690   0.00000   0.00000
  86        8D+2        0.00000   0.05622  -0.01926   0.00000   0.00000
  87        8D-2        0.00949   0.00000   0.00000   0.03057   0.00158
  88        9D 0        0.00000   0.21891  -0.27537   0.00000   0.00000
  89        9D+1       -0.23706   0.00000   0.00000  -0.73940  -0.92974
  90        9D-1        0.00000  -0.15390  -0.15455   0.00000   0.00000
  91        9D+2        0.00000   0.34485   0.41744   0.00000   0.00000
  92        9D-2        1.12037   0.00000   0.00000  -0.13617   0.41172
                          31        32        33        34        35
                        (B2)--V   (A1)--V   (A1)--V   (B2)--V   (B1)--V
     Eigenvalues --     0.80383   0.82768   0.87992   0.88731   0.91526
   1 1   O  1S          0.00000   0.04571   0.09292   0.00000   0.00000
   2        2S          0.00000  -0.05025  -0.13264   0.00000   0.00000
   3        3S          0.00000  -0.00328  -0.05824   0.00000   0.00000
   4        4S          0.00000  -0.07052   5.89298   0.00000   0.00000
   5        5S          0.00000   3.39561   5.10601   0.00000   0.00000
   6        6PX         0.00000   0.00000   0.00000   0.00000   0.13814
   7        6PY        -0.12343   0.00000   0.00000  -0.23424   0.00000
   8        6PZ         0.00000   0.06965   0.08952   0.00000   0.00000
   9        7PX         0.00000   0.00000   0.00000   0.00000   0.45821
  10        7PY        -0.00485   0.00000   0.00000   0.13570   0.00000
  11        7PZ         0.00000   0.13664  -0.13351   0.00000   0.00000
  12        8PX         0.00000   0.00000   0.00000   0.00000   0.33117
  13        8PY         6.09739   0.00000   0.00000  -1.54800   0.00000
  14        8PZ         0.00000   0.85817   1.23371   0.00000   0.00000
  15        9PX         0.00000   0.00000   0.00000   0.00000   0.34444
  16        9PY         3.33711   0.00000   0.00000   0.29125   0.00000
  17        9PZ         0.00000  -0.34651   0.09628   0.00000   0.00000
  18       10D 0        0.00000  -0.01788   0.00584   0.00000   0.00000
  19       10D+1        0.00000   0.00000   0.00000   0.00000   0.01436
  20       10D-1        0.00053   0.00000   0.00000  -0.00735   0.00000
  21       10D+2        0.00000   0.00152   0.00001   0.00000   0.00000
  22       10D-2        0.00000   0.00000   0.00000   0.00000   0.00000
  23       11D 0        0.00000   0.05556  -0.06476   0.00000   0.00000
  24       11D+1        0.00000   0.00000   0.00000   0.00000  -0.04497
  25       11D-1       -0.08579   0.00000   0.00000  -0.17442   0.00000
  26       11D+2        0.00000   0.01494  -0.07116   0.00000   0.00000
  27       11D-2        0.00000   0.00000   0.00000   0.00000   0.00000
  28       12D 0        0.00000  -1.00621   0.02244   0.00000   0.00000
  29       12D+1        0.00000   0.00000   0.00000   0.00000   0.83240
  30       12D-1       -0.73787   0.00000   0.00000   2.18981   0.00000
  31       12D+2        0.00000   1.87385   0.56267   0.00000   0.00000
  32       12D-2        0.00000   0.00000   0.00000   0.00000   0.00000
  33       13F 0        0.00000  -0.01957   0.00956   0.00000   0.00000
  34       13F+1        0.00000   0.00000   0.00000   0.00000   0.00749
  35       13F-1        0.01845   0.00000   0.00000   0.01824   0.00000
  36       13F+2        0.00000   0.00843   0.01070   0.00000   0.00000
  37       13F-2        0.00000   0.00000   0.00000   0.00000   0.00000
  38       13F+3        0.00000   0.00000   0.00000   0.00000   0.01152
  39       13F-3        0.01218   0.00000   0.00000  -0.01066   0.00000
  40       14F 0        0.00000   0.05422  -0.06994   0.00000   0.00000
  41       14F+1        0.00000   0.00000   0.00000   0.00000  -0.04768
  42       14F-1       -0.19310   0.00000   0.00000  -0.10882   0.00000
  43       14F+2        0.00000  -0.13268  -0.12336   0.00000   0.00000
  44       14F-2        0.00000   0.00000   0.00000   0.00000   0.00000
  45       14F+3        0.00000   0.00000   0.00000   0.00000  -0.01594
  46       14F-3       -0.17700   0.00000   0.00000   0.06756   0.00000
  47 2   H  1S         -0.06194   0.04255   0.10222  -0.11770   0.00000
  48        2S          2.22549   2.37974   0.86893  -1.97424   0.00000
  49        3S          3.28108  -2.76487  -4.45832   7.73844   0.00000
  50        4S          1.04558  -0.16807  -0.31141   0.82381   0.00000
  51        5PX         0.00000   0.00000   0.00000   0.00000  -0.01447
  52        5PY         0.03020   0.01983   0.01743  -0.02320   0.00000
  53        5PZ        -0.01900   0.02285   0.02201   0.00765   0.00000
  54        6PX         0.00000   0.00000   0.00000   0.00000   0.29349
  55        6PY         0.12331   0.12723  -0.36570   0.56852   0.00000
  56        6PZ         0.78554  -0.07909  -0.33812   0.44893   0.00000
  57        7PX         0.00000   0.00000   0.00000   0.00000  -0.37306
  58        7PY        -1.51034  -1.12259  -1.95256   3.80883   0.00000
  59        7PZ         2.70987  -0.57297  -1.87328   1.29450   0.00000
  60        8D 0        0.01546  -0.02339   0.00392   0.00190   0.00000
  61        8D+1        0.00000   0.00000   0.00000   0.00000   0.02978
  62        8D-1        0.01478   0.01419  -0.01135   0.04933   0.00000
  63        8D+2       -0.01796   0.00344   0.00002  -0.01450   0.00000
  64        8D-2        0.00000   0.00000   0.00000   0.00000   0.02906
  65        9D 0        1.15910   0.78207  -0.39622  -0.02294   0.00000
  66        9D+1        0.00000   0.00000   0.00000   0.00000  -0.80818
  67        9D-1        0.67899  -0.55298  -1.12217   0.82696   0.00000
  68        9D+2        0.83907  -0.21712   0.80603  -1.29344   0.00000
  69        9D-2        0.00000   0.00000   0.00000   0.00000  -0.44515
  70 3   H  1S          0.06194   0.04255   0.10222   0.11770   0.00000
  71        2S         -2.22549   2.37974   0.86893   1.97424   0.00000
  72        3S         -3.28108  -2.76487  -4.45832  -7.73844   0.00000
  73        4S         -1.04558  -0.16807  -0.31141  -0.82381   0.00000
  74        5PX         0.00000   0.00000   0.00000   0.00000  -0.01447
  75        5PY         0.03020  -0.01983  -0.01743  -0.02320   0.00000
  76        5PZ         0.01900   0.02285   0.02201  -0.00765   0.00000
  77        6PX         0.00000   0.00000   0.00000   0.00000   0.29349
  78        6PY         0.12331  -0.12723   0.36570   0.56852   0.00000
  79        6PZ        -0.78554  -0.07909  -0.33812  -0.44893   0.00000
  80        7PX         0.00000   0.00000   0.00000   0.00000  -0.37306
  81        7PY        -1.51034   1.12259   1.95256   3.80883   0.00000
  82        7PZ        -2.70987  -0.57297  -1.87328  -1.29450   0.00000
  83        8D 0       -0.01546  -0.02339   0.00392  -0.00190   0.00000
  84        8D+1        0.00000   0.00000   0.00000   0.00000   0.02978
  85        8D-1        0.01478  -0.01419   0.01135   0.04933   0.00000
  86        8D+2        0.01796   0.00344   0.00002   0.01450   0.00000
  87        8D-2        0.00000   0.00000   0.00000   0.00000  -0.02906
  88        9D 0       -1.15910   0.78207  -0.39622   0.02294   0.00000
  89        9D+1        0.00000   0.00000   0.00000   0.00000  -0.80818
  90        9D-1        0.67899   0.55298   1.12217   0.82696   0.00000
  91        9D+2       -0.83907  -0.21712   0.80603   1.29344   0.00000
  92        9D-2        0.00000   0.00000   0.00000   0.00000   0.44515
                          36        37        38        39        40
                        (B2)--V   (A1)--V   (A2)--V   (B2)--V   (A2)--V
     Eigenvalues --     0.98603   1.02931   1.03942   1.10372   1.33067
   1 1   O  1S          0.00000  -0.01395   0.00000   0.00000   0.00000
   2        2S          0.00000   0.07816   0.00000   0.00000   0.00000
   3        3S          0.00000  -0.00586   0.00000   0.00000   0.00000
   4        4S          0.00000   1.67250   0.00000   0.00000   0.00000
   5        5S          0.00000   1.30754   0.00000   0.00000   0.00000
   6        6PX         0.00000   0.00000   0.00000   0.00000   0.00000
   7        6PY        -0.02233   0.00000   0.00000  -0.11465   0.00000
   8        6PZ         0.00000   0.08325   0.00000   0.00000   0.00000
   9        7PX         0.00000   0.00000   0.00000   0.00000   0.00000
  10        7PY        -0.16440   0.00000   0.00000   0.32734   0.00000
  11        7PZ         0.00000   0.12912   0.00000   0.00000   0.00000
  12        8PX         0.00000   0.00000   0.00000   0.00000   0.00000
  13        8PY         0.40810   0.00000   0.00000  12.67580   0.00000
  14        8PZ         0.00000   0.45868   0.00000   0.00000   0.00000
  15        9PX         0.00000   0.00000   0.00000   0.00000   0.00000
  16        9PY         0.01012   0.00000   0.00000   2.36205   0.00000
  17        9PZ         0.00000  -0.03318   0.00000   0.00000   0.00000
  18       10D 0        0.00000   0.02643   0.00000   0.00000   0.00000
  19       10D+1        0.00000   0.00000   0.00000   0.00000   0.00000
  20       10D-1        0.00250   0.00000   0.00000   0.05451   0.00000
  21       10D+2        0.00000   0.02694   0.00000   0.00000   0.00000
  22       10D-2        0.00000   0.00000  -0.02550   0.00000  -0.04153
  23       11D 0        0.00000  -0.07244   0.00000   0.00000   0.00000
  24       11D+1        0.00000   0.00000   0.00000   0.00000   0.00000
  25       11D-1        0.03343   0.00000   0.00000  -0.60832   0.00000
  26       11D+2        0.00000  -0.17372   0.00000   0.00000   0.00000
  27       11D-2        0.00000   0.00000   0.09274   0.00000   0.04117
  28       12D 0        0.00000  -0.29461   0.00000   0.00000   0.00000
  29       12D+1        0.00000   0.00000   0.00000   0.00000   0.00000
  30       12D-1        1.83130   0.00000   0.00000  -5.24199   0.00000
  31       12D+2        0.00000   0.07199   0.00000   0.00000   0.00000
  32       12D-2        0.00000   0.00000  -1.09282   0.00000   2.90169
  33       13F 0        0.00000  -0.00646   0.00000   0.00000   0.00000
  34       13F+1        0.00000   0.00000   0.00000   0.00000   0.00000
  35       13F-1        0.01742   0.00000   0.00000  -0.00416   0.00000
  36       13F+2        0.00000   0.01051   0.00000   0.00000   0.00000
  37       13F-2        0.00000   0.00000   0.01186   0.00000   0.02479
  38       13F+3        0.00000   0.00000   0.00000   0.00000   0.00000
  39       13F-3        0.01941   0.00000   0.00000  -0.00636   0.00000
  40       14F 0        0.00000   0.07009   0.00000   0.00000   0.00000
  41       14F+1        0.00000   0.00000   0.00000   0.00000   0.00000
  42       14F-1       -0.25333   0.00000   0.00000   0.29981   0.00000
  43       14F+2        0.00000   0.03415   0.00000   0.00000   0.00000
  44       14F-2        0.00000   0.00000  -0.06373   0.00000  -0.33348
  45       14F+3        0.00000   0.00000   0.00000   0.00000   0.00000
  46       14F-3       -0.15562   0.00000   0.00000  -0.17928   0.00000
  47 2   H  1S          0.01409  -0.03790   0.00000   0.08777   0.00000
  48        2S         -1.47336  -1.07950   0.00000   9.34703   0.00000
  49        3S          2.04010  -0.79078   0.00000  10.25911   0.00000
  50        4S         -0.03434  -0.01842   0.00000   0.88216   0.00000
  51        5PX         0.00000   0.00000   0.01353   0.00000  -0.04721
  52        5PY        -0.01220  -0.01033   0.00000   0.09205   0.00000
  53        5PZ         0.00046  -0.01657   0.00000   0.03939   0.00000
  54        6PX         0.00000   0.00000  -0.02508   0.00000   2.26746
  55        6PY        -0.33015  -0.38870   0.00000   1.81005   0.00000
  56        6PZ         0.49299  -0.44729   0.00000   0.94856   0.00000
  57        7PX         0.00000   0.00000   0.47139   0.00000   1.27810
  58        7PY         0.63405   0.48744   0.00000   2.39850   0.00000
  59        7PZ         0.01900  -0.41498   0.00000   0.66832   0.00000
  60        8D 0        0.02124   0.00644   0.00000  -0.01716   0.00000
  61        8D+1        0.00000   0.00000   0.03321   0.00000   0.03292
  62        8D-1        0.03500  -0.01789   0.00000   0.09772   0.00000
  63        8D+2        0.02453   0.04003   0.00000  -0.08719   0.00000
  64        8D-2        0.00000   0.00000  -0.02965   0.00000   0.05863
  65        9D 0        0.86026  -0.79155   0.00000  -0.62057   0.00000
  66        9D+1        0.00000   0.00000  -0.56085   0.00000   1.01222
  67        9D-1       -1.00824  -0.41340   0.00000  -0.47865   0.00000
  68        9D+2       -0.15604  -0.96249   0.00000   0.23573   0.00000
  69        9D-2        0.00000   0.00000   1.35035   0.00000   0.80533
  70 3   H  1S         -0.01409  -0.03790   0.00000  -0.08777   0.00000
  71        2S          1.47336  -1.07950   0.00000  -9.34703   0.00000
  72        3S         -2.04010  -0.79078   0.00000 -10.25911   0.00000
  73        4S          0.03434  -0.01842   0.00000  -0.88216   0.00000
  74        5PX         0.00000   0.00000  -0.01353   0.00000   0.04721
  75        5PY        -0.01220   0.01033   0.00000   0.09205   0.00000
  76        5PZ        -0.00046  -0.01657   0.00000  -0.03939   0.00000
  77        6PX         0.00000   0.00000   0.02508   0.00000  -2.26746
  78        6PY        -0.33015   0.38870   0.00000   1.81005   0.00000
  79        6PZ        -0.49299  -0.44729   0.00000  -0.94856   0.00000
  80        7PX         0.00000   0.00000  -0.47139   0.00000  -1.27810
  81        7PY         0.63405  -0.48744   0.00000   2.39850   0.00000
  82        7PZ        -0.01900  -0.41498   0.00000  -0.66832   0.00000
  83        8D 0       -0.02124   0.00644   0.00000   0.01716   0.00000
  84        8D+1        0.00000   0.00000  -0.03321   0.00000  -0.03292
  85        8D-1        0.03500   0.01789   0.00000   0.09772   0.00000
  86        8D+2       -0.02453   0.04003   0.00000   0.08719   0.00000
  87        8D-2        0.00000   0.00000  -0.02965   0.00000   0.05863
  88        9D 0       -0.86026  -0.79155   0.00000   0.62057   0.00000
  89        9D+1        0.00000   0.00000   0.56085   0.00000  -1.01222
  90        9D-1       -1.00824   0.41340   0.00000  -0.47865   0.00000
  91        9D+2        0.15604  -0.96249   0.00000  -0.23573   0.00000
  92        9D-2        0.00000   0.00000   1.35035   0.00000   0.80533
                          41        42        43        44        45
                        (A1)--V   (B1)--V   (A1)--V   (B2)--V   (B2)--V
     Eigenvalues --     1.38492   1.39977   1.56661   1.57875   1.75533
   1 1   O  1S          0.00981   0.00000   0.00699   0.00000   0.00000
   2        2S         -0.25139   0.00000  -0.52528   0.00000   0.00000
   3        3S         -0.10304   0.00000  -0.27152   0.00000   0.00000
   4        4S          4.35117   0.00000  15.82270   0.00000   0.00000
   5        5S          2.94135   0.00000   9.39508   0.00000   0.00000
   6        6PX         0.00000   0.10311   0.00000   0.00000   0.00000
   7        6PY         0.00000   0.00000   0.00000   0.08555   0.21926
   8        6PZ         0.03685   0.00000  -0.12263   0.00000   0.00000
   9        7PX         0.00000   0.29528   0.00000   0.00000   0.00000
  10        7PY         0.00000   0.00000   0.00000   0.38345   1.05138
  11        7PZ        -0.18002   0.00000  -1.28167   0.00000   0.00000
  12        8PX         0.00000   5.24525   0.00000   0.00000   0.00000
  13        8PY         0.00000   0.00000   0.00000   9.74553  -3.24044
  14        8PZ         2.58487   0.00000  -6.55744   0.00000   0.00000
  15        9PX         0.00000   0.86629   0.00000   0.00000   0.00000
  16        9PY         0.00000   0.00000   0.00000   2.10632   0.56250
  17        9PZ         0.33362   0.00000  -1.48638   0.00000   0.00000
  18       10D 0        0.03452   0.00000  -0.00762   0.00000   0.00000
  19       10D+1        0.00000   0.02641   0.00000   0.00000   0.00000
  20       10D-1        0.00000   0.00000   0.00000  -0.00871   0.01270
  21       10D+2        0.02387   0.00000   0.01666   0.00000   0.00000
  22       10D-2        0.00000   0.00000   0.00000   0.00000   0.00000
  23       11D 0       -0.03082   0.00000  -0.17493   0.00000   0.00000
  24       11D+1        0.00000   0.05743   0.00000   0.00000   0.00000
  25       11D-1        0.00000   0.00000   0.00000  -0.06261   0.41646
  26       11D+2       -0.09711   0.00000  -0.16212   0.00000   0.00000
  27       11D-2        0.00000   0.00000   0.00000   0.00000   0.00000
  28       12D 0       -2.59388   0.00000   1.02071   0.00000   0.00000
  29       12D+1        0.00000  -2.00823   0.00000   0.00000   0.00000
  30       12D-1        0.00000   0.00000   0.00000  -1.90250   1.90446
  31       12D+2       -2.11013   0.00000  -1.03635   0.00000   0.00000
  32       12D-2        0.00000   0.00000   0.00000   0.00000   0.00000
  33       13F 0       -0.00019   0.00000   0.02770   0.00000   0.00000
  34       13F+1        0.00000   0.00196   0.00000   0.00000   0.00000
  35       13F-1        0.00000   0.00000   0.00000   0.02772  -0.03179
  36       13F+2        0.01195   0.00000   0.06538   0.00000   0.00000
  37       13F-2        0.00000   0.00000   0.00000   0.00000   0.00000
  38       13F+3        0.00000   0.01567   0.00000   0.00000   0.00000
  39       13F-3        0.00000   0.00000   0.00000   0.00662   0.03064
  40       14F 0        0.14196   0.00000   0.02253   0.00000   0.00000
  41       14F+1        0.00000  -0.02093   0.00000   0.00000   0.00000
  42       14F-1        0.00000   0.00000   0.00000  -0.30890   0.10591
  43       14F+2        0.02846   0.00000  -0.10307   0.00000   0.00000
[...]
                      KCal/Mol        Cal/Mol-Kelvin    Cal/Mol-Kelvin
 Total                   15.107              6.009             45.085
 Electronic               0.000              0.000              0.000
 Translational            0.889              2.981             34.608
 Rotational               0.889              2.981             10.470
 Vibrational             13.330              0.048              0.007
                       Q            Log10(Q)             Ln(Q)
 Total Bot       0.221316D-01         -1.654987         -3.810749
 Total V=0       0.130210D+09          8.114645         18.684660
 Vib (Bot)       0.170034D-09         -9.769463        -22.495021
 Vib (V=0)       0.100039D+01          0.000169          0.000389
 Electronic      0.100000D+01          0.000000          0.000000
 Translational   0.300431D+07          6.477745         14.915559
 Rotational      0.433243D+02          1.636731          3.768713
 
                                           H2O DFT B3LPY aug-cc-pVTZ Opt Freq - F
 ull - NBO
                                                             IR Spectrum
 
     3   3                                                                     1                                                     
     8   7                                                                     6                                                     
     9   9                                                                     2                                                     
     9   7                                                                     7                                                     
 
     X   X                                                                     X                                                     
     X                                                                         X                                                     
     X                                                                         X                                                     
     X                                                                         X                                                     
     X                                                                         X                                                     
     X                                                                         X                                                     
     X                                                                         X                                                     
     X                                                                         X                                                     
     X                                                                         X                                                     
     X                                                                         X                                                     
     X                                                                         X                                                     
     X                                                                         X                                                     
     X                                                                         X                                                     
     X                                                                         X                                                     
     X                                                                         X                                                     
     X                                                                         X                                                     
     X                                                                         X                                                     
                                                                               X                                                     
                                                                               X                                                     
                                                                               X                                                     
 
 
                                           H2O DFT B3LPY aug-cc-pVTZ Opt Freq - F
 ull - NBO
                                                            Raman Spectrum
 
     3   3                                                                     1                                                     
     8   7                                                                     6                                                     
     9   9                                                                     2                                                     
     9   7                                                                     7                                                     
 
     X   X                                                                     X                                                     
     X   X                                                                                                                           
     X   X                                                                                                                           
     X   X                                                                                                                           
     X   X                                                                                                                           
         X                                                                                                                           
         X                                                                                                                           
         X                                                                                                                           
         X                                                                                                                           
         X                                                                                                                           
         X                                                                                                                           
         X                                                                                                                           
         X                                                                                                                           
         X                                                                                                                           
         X                                                                                                                           
         X                                                                                                                           
         X                                                                                                                           
         X                                                                                                                           
         X                                                                                                                           
         X                                                                                                                           
 
 ***** Axes restored to original set *****
 -------------------------------------------------------------------
 Center     Atomic                   Forces (Hartrees/Bohr)
 Number     Number              X              Y              Z
 -------------------------------------------------------------------
      1        8          -0.000000169   -0.000000239    0.000000000
      2        1           0.000000199    0.000000039    0.000000000
      3        1          -0.000000030    0.000000201   -0.000000000
 -------------------------------------------------------------------
 Cartesian Forces:  Max     0.000000239 RMS     0.000000137
 Force constants in Cartesian coordinates: 
                1             2             3             4             5 
      1  0.600121D+00
      2 -0.108847D+00  0.523032D+00
      3  0.000000D+00  0.000000D+00  0.245920D-04
      4 -0.516344D+00  0.773547D-02  0.000000D+00  0.532653D+00
      5 -0.520690D-01 -0.452324D-01  0.000000D+00  0.203585D-02  0.472840D-01
      6  0.000000D+00  0.000000D+00 -0.122960D-04  0.000000D+00  0.000000D+00
      7 -0.837769D-01  0.101111D+00  0.000000D+00 -0.163091D-01  0.500331D-01
      8  0.160915D+00 -0.477799D+00  0.000000D+00 -0.977133D-02 -0.205162D-02
      9  0.000000D+00  0.000000D+00 -0.122960D-04  0.000000D+00  0.000000D+00
                6             7             8             9 
      6  0.120419D-04
      7  0.000000D+00  0.100086D+00
      8  0.000000D+00 -0.151144D+00  0.479851D+00
      9  0.000000D+00  0.000000D+00  0.000000D+00  0.120419D-04
 FormGI is forming the generalized inverse of G from B-inverse, IUseBI=4.
 Force constants in internal coordinates: 
                1             2             3 
      1  0.532091D+00
      2 -0.512761D-02  0.532091D+00
      3  0.302579D-01  0.302579D-01  0.158059D+00
 Leave Link  716 at Fri Sep  6 10:43:03 2024, MaxMem=  1073741824 cpu:               0.1 elap:               0.0
 (Enter /Users/asuyarger/Applications/G16/g16/l103.exe)

 GradGradGradGradGradGradGradGradGradGradGradGradGradGradGradGradGradGrad
 Berny optimization.
 Red2BG is reusing G-inverse.
 Internal  Forces:  Max     0.000000200 RMS     0.000000167
 Search for a local minimum.
 Step number   1 out of a maximum of    2
 All quantities printed in internal units (Hartrees-Bohrs-Radians)
 Second derivative matrix not updated -- analytic derivatives used.
 The second derivative matrix:
                          R1        R2        A1
           R1           0.53209
           R2          -0.00513   0.53209
           A1           0.03026   0.03026   0.15806
 ITU=  0
     Eigenvalues ---    0.15316   0.53186   0.53722
 Angle between quadratic step and forces=  90.00 degrees.
 Linear search not attempted -- first point.
 Iteration  1 RMS(Cart)=  0.00000029 RMS(Int)=  0.00000000
 ITry= 1 IFail=0 DXMaxC= 3.38D-07 DCOld= 1.00D+10 DXMaxT= 3.00D-01 DXLimC= 3.00D+00 Rises=F
 ClnCor:  largest displacement from symmetrization is 1.33D-15 for atom     2.
 Variable       Old X    -DE/DX   Delta X   Delta X   Delta X     New X
                                 (Linear)    (Quad)   (Total)
    R1        1.81762   0.00000   0.00000   0.00000   0.00000   1.81762
    R2        1.81762   0.00000   0.00000   0.00000   0.00000   1.81762
    A1        1.83410  -0.00000   0.00000  -0.00000  -0.00000   1.83410
         Item               Value     Threshold  Converged?
 Maximum Force            0.000000     0.000015     YES
 RMS     Force            0.000000     0.000010     YES
 Maximum Displacement     0.000000     0.000060     YES
 RMS     Displacement     0.000000     0.000040     YES
 Predicted change in Energy=-9.676571D-14
 Optimization completed.
    -- Stationary point found.
                           ----------------------------
                           !   Optimized Parameters   !
                           ! (Angstroms and Degrees)  !
 --------------------------                            --------------------------
 ! Name  Definition              Value          Derivative Info.                !
 --------------------------------------------------------------------------------
 ! R1    R(1,2)                  0.9618         -DE/DX =    0.0                 !
 ! R2    R(1,3)                  0.9618         -DE/DX =    0.0                 !
 ! A1    A(2,1,3)              105.0861         -DE/DX =    0.0                 !
 --------------------------------------------------------------------------------
 GradGradGradGradGradGradGradGradGradGradGradGradGradGradGradGradGradGrad

 Leave Link  103 at Fri Sep  6 10:43:04 2024, MaxMem=  1073741824 cpu:               0.0 elap:               0.0
 (Enter /Users/asuyarger/Applications/G16/g16/l9999.exe)

 ----------------------------------------------------------------------

 Electric dipole moment (input orientation):
 (Debye = 10**-18 statcoulomb cm , SI units = C m)
                  (au)            (Debye)         (10**-30 SI)
   Tot        0.726736D+00      0.184718D+01      0.616152D+01
   x          0.419432D+00      0.106609D+01      0.355609D+01
   y          0.593483D+00      0.150848D+01      0.503176D+01
   z          0.000000D+00      0.000000D+00      0.000000D+00

 Dipole polarizability, Alpha (input orientation).
 (esu units = cm**3 , SI units = C**2 m**2 J**-1)
 Alpha(0;0):
               (au)            (10**-24 esu)      (10**-40 SI)
   iso        0.980730D+01      0.145329D+01      0.161701D+01
   aniso      0.749558D+00      0.111073D+00      0.123585D+00
   xx         0.100935D+02      0.149571D+01      0.166420D+01
   yx        -0.247684D+00     -0.367030D-01     -0.408375D-01
   yy         0.991812D+01      0.146971D+01      0.163528D+01
   zx         0.000000D+00      0.000000D+00      0.000000D+00
   zy         0.000000D+00      0.000000D+00      0.000000D+00
   zz         0.941025D+01      0.139445D+01      0.155154D+01

 First dipole hyperpolarizability, Beta (input orientation).
 ||, _|_  parallel and perpendicular components, (z) with respect to z axis,
 vector components x,y,z.  Values do not include the 1/n! factor of 1/2.
 (esu units = statvolt**-1 cm**4 , SI units = C**3 m**3 J**-2)
 Beta(0;0,0):
               (au)            (10**-30 esu)      (10**-50 SI)
   || (z)     0.000000D+00      0.000000D+00      0.000000D+00
   _|_(z)     0.000000D+00      0.000000D+00      0.000000D+00
   x          0.528182D+02      0.456308D+00      0.169354D+00
   y          0.747360D+02      0.645661D+00      0.239631D+00
   z          0.000000D+00      0.000000D+00      0.000000D+00
   ||         0.183033D+02      0.158126D+00      0.586869D-01
   xxx        0.187296D+02      0.161810D+00      0.600540D-01
   xxy        0.305378D+01      0.263823D-01      0.979153D-02
   yxy       -0.398239D+01     -0.344047D-01     -0.127690D-01
   yyy        0.178131D+02      0.153891D+00      0.571153D-01
   xxz        0.000000D+00      0.000000D+00      0.000000D+00
   yxz        0.000000D+00      0.000000D+00      0.000000D+00
   yyz        0.000000D+00      0.000000D+00      0.000000D+00
   zxz        0.285881D+01      0.246979D-01      0.916637D-02
   zyz        0.404512D+01      0.349467D-01      0.129701D-01
   zzz        0.000000D+00      0.000000D+00      0.000000D+00

 ----------------------------------------------------------------------

 Dipole orientation:
     8         -0.79790090          0.55431528          0.29967023
     1          0.38038507         -0.27841491          1.40508138
     1         -1.97618687          1.38704548          1.40508138

 Electric dipole moment (dipole orientation):
 (Debye = 10**-18 statcoulomb cm , SI units = C m)
                  (au)            (Debye)         (10**-30 SI)
   Tot        0.726736D+00      0.184718D+01      0.616152D+01
   x          0.000000D+00      0.000000D+00      0.000000D+00
   y          0.000000D+00      0.000000D+00      0.000000D+00
   z          0.726736D+00      0.184718D+01      0.616152D+01

 Dipole polarizability, Alpha (dipole orientation).
 (esu units = cm**3 , SI units = C**2 m**2 J**-1)
 Alpha(0;0):
               (au)            (10**-24 esu)      (10**-40 SI)
   iso        0.980730D+01      0.145329D+01      0.161701D+01
   aniso      0.749558D+00      0.111073D+00      0.123585D+00
   xx         0.998267D+01      0.147928D+01      0.164592D+01
   yx        -0.404552D+00     -0.599484D-01     -0.667016D-01
   yy         0.969615D+01      0.143682D+01      0.159868D+01
   zx         0.000000D+00      0.000000D+00      0.000000D+00
   zy         0.000000D+00      0.000000D+00      0.000000D+00
   zz         0.974307D+01      0.144377D+01      0.160642D+01

 First dipole hyperpolarizability, Beta (dipole orientation).
 ||, _|_  parallel and perpendicular components, (z) with respect to z axis,
 vector components x,y,z.  Values do not include the 1/n! factor of 1/2.
 (esu units = statvolt**-1 cm**4 , SI units = C**3 m**3 J**-2)
 Beta(0;0,0):
               (au)            (10**-30 esu)      (10**-50 SI)
   || (z)     0.183033D+02      0.158126D+00      0.586869D-01
   _|_(z)     0.610109D+01      0.527086D-01      0.195623D-01
   x          0.000000D+00      0.000000D+00      0.000000D+00
   y          0.000000D+00      0.000000D+00      0.000000D+00
   z          0.915163D+02      0.790630D+00      0.293434D+00
   ||         0.183033D+02      0.158126D+00      0.586869D-01
   xxx        0.000000D+00      0.000000D+00      0.000000D+00
   xxy        0.000000D+00      0.000000D+00      0.000000D+00
   yxy        0.000000D+00      0.000000D+00      0.000000D+00
   yyy        0.000000D+00      0.000000D+00      0.000000D+00
   xxz        0.112243D+02      0.969690D-01      0.359891D-01
   yxz       -0.443185D+01     -0.382877D-01     -0.142101D-01
   yyz        0.808548D+01      0.698522D-01      0.259250D-01
   zxz        0.000000D+00      0.000000D+00      0.000000D+00
   zyz        0.000000D+00      0.000000D+00      0.000000D+00
   zzz        0.111957D+02      0.967220D-01      0.358974D-01

 ----------------------------------------------------------------------
 1\1\GINC-JEFFSMACSTUDIO\Freq\RB3LYP\Aug-CC-pVTZ\H2O1\ROOT\06-Sep-2024\
 0\\#P Geom=AllCheck Guess=TCheck SCRF=Check GenChk RB3LYP/Aug-CC-pVTZ 
 Freq\\H2O DFT B3LPY aug-cc-pVTZ Opt Freq - Full - NBO\\0,1\O,-0.328317
 3651,0.4262156953,0.00414228\H,0.6328106392,0.4632551795,0.00414228\H,
 -0.6142335262,1.3445788658,0.00414228\\Version=EM64M-G16RevA.03\State=
 1-A1\HF=-76.4661983\RMSD=3.975e-10\RMSF=1.368e-07\ZeroPoint=0.0212398\
 Thermal=0.0240753\Dipole=0.419432,0.5934826,0.\DipoleDeriv=-0.4533337,
 0.0676077,0.,0.0676077,-0.4054515,0.,0.,0.,-0.6574381,0.1633209,-0.063
 556,0.,-0.0489157,0.2660717,0.,0.,0.,0.3287191,0.2900128,-0.0040517,0.
 ,-0.018692,0.1393798,0.,0.,0.,0.3287191\Polar=10.0935366,-0.2476838,9.
 9181177,0.,0.,9.410246\PolarDeriv=-6.1513528,-1.0170335,0.3837959,0.,0
 .,-0.9696595,-1.864675,0.9828497,-6.2962292,0.,0.,-1.3720364,0.,0.,0.,
 -0.1737553,-0.2458581,0.,7.3645813,-0.0222896,1.533774,0.,0.,1.56743,-
 0.0369247,0.6138465,-0.1333059,0.,0.,-0.079088,0.,0.,0.,0.3298272,-0.0
 487707,0.,-1.2132285,1.0393231,-1.9175699,0.,0.,-0.5977705,1.9015997,-
 1.5966961,6.4295351,0.,0.,1.4511244,0.,0.,0.,-0.1560719,0.2946288,0.\H
 yperPolar=18.7296469,3.0537826,-3.9823891,17.8131045,0.,0.,0.,2.858807
 1,4.0451185,0.\Quadrupole=0.8266923,0.3208225,-1.1475149,-0.7142661,0.
 ,0.\PG=C02V [C2(O1),SGV(H2)]\NImag=0\\0.60012092,-0.10884651,0.5230317
 8,0.,0.,0.00002459,-0.51634397,0.00773547,0.,0.53265304,-0.05206898,-0
 .04523238,0.,0.00203585,0.04728400,0.,0.,-0.00001230,0.,0.,0.00001204,
 -0.08377695,0.10111103,0.,-0.01630908,0.05003313,0.,0.10008602,0.16091
 549,-0.47779940,0.,-0.00977133,-0.00205162,0.,-0.15114416,0.47985102,0
 .,0.,-0.00001230,0.,0.,0.00000025,0.,0.,0.00001204\\0.00000017,0.00000
 024,0.,-0.00000020,-0.00000004,0.,0.00000003,-0.00000020,0.\\\@


 I WISH TO HAVE NO CONNECTION WITH ANY SHIP THAT DOES NOT SAIL FAST,
 FOR I INTEND TO GO IN HARM'S WAY.
     -- JOHN PAUL JONES, USN 1747-1792
 Job cpu time:       0 days  0 hours  0 minutes  5.6 seconds.
 Elapsed time:       0 days  0 hours  0 minutes  5.1 seconds.
 File lengths (MBytes):  RWF=     10 Int=      0 D2E=      0 Chk=      2 Scr=      1
 Normal termination of Gaussian 16 at Fri Sep  6 10:43:04 2024.
