 Entering Gaussian System, Link 0=g16
 Input=/Users/asuyarger/Downloads/H2O_DFT_uB3LPY_6311pp2d3p_Opt_Freq_Full.gjf
 Output=/Users/asuyarger/Downloads/H2O_DFT_uB3LPY_6311pp2d3p_Opt_Freq_Full.log
 Initial command:
 /Users/asuyarger/Applications/G16/g16/l1.exe "/Users/asuyarger/Applications/G16/scratch/Gau-88885.inp" -scrdir="/Users/asuyarger/Applications/G16/scratch/"
 Entering Link 1 = /Users/asuyarger/Applications/G16/g16/l1.exe PID=     88886.
  
 Copyright (c) 1988,1990,1992,1993,1995,1998,2003,2009,2016,
            Gaussian, Inc.  All Rights Reserved.
  
 This is part of the Gaussian(R) 16 program.  It is based on
 the Gaussian(R) 09 system (copyright 2009, Gaussian, Inc.),
 the Gaussian(R) 03 system (copyright 2003, Gaussian, Inc.),
 the Gaussian(R) 98 system (copyright 1998, Gaussian, Inc.),
 the Gaussian(R) 94 system (copyright 1995, Gaussian, Inc.),
 the Gaussian 92(TM) system (copyright 1992, Gaussian, Inc.),
 the Gaussian 90(TM) system (copyright 1990, Gaussian, Inc.),
 the Gaussian 88(TM) system (copyright 1988, Gaussian, Inc.),
 the Gaussian 86(TM) system (copyright 1986, Carnegie Mellon
 University), and the Gaussian 82(TM) system (copyright 1983,
 Carnegie Mellon University). Gaussian is a federally registered
 trademark of Gaussian, Inc.
  
 This software contains proprietary and confidential information,
 including trade secrets, belonging to Gaussian, Inc.
  
 This software is provided under written license and may be
 used, copied, transmitted, or stored only in accord with that
 written license.
  
 The following legend is applicable only to US Government
 contracts under FAR:
  
                    RESTRICTED RIGHTS LEGEND
  
 Use, reproduction and disclosure by the US Government is
 subject to restrictions as set forth in subparagraphs (a)
 and (c) of the Commercial Computer Software - Restricted
 Rights clause in FAR 52.227-19.
  
 Gaussian, Inc.
 340 Quinnipiac St., Bldg. 40, Wallingford CT 06492
  
  
 ---------------------------------------------------------------
 Warning -- This program may not be used in any manner that
 competes with the business of Gaussian, Inc. or will provide
 assistance to any competitor of Gaussian, Inc.  The licensee
 of this program is prohibited from giving any competitor of
 Gaussian, Inc. access to this program.  By using this program,
 the user acknowledges that Gaussian, Inc. is engaged in the
 business of creating and licensing software in the field of
 computational chemistry and represents and warrants to the
 licensee that it is not a competitor of Gaussian, Inc. and that
 it will not use this program in any manner prohibited above.
 ---------------------------------------------------------------
  

 Cite this work as:
 Gaussian 16, Revision A.03,
 M. J. Frisch, G. W. Trucks, H. B. Schlegel, G. E. Scuseria, 
 M. A. Robb, J. R. Cheeseman, G. Scalmani, V. Barone, 
 G. A. Petersson, H. Nakatsuji, X. Li, M. Caricato, A. V. Marenich, 
 J. Bloino, B. G. Janesko, R. Gomperts, B. Mennucci, H. P. Hratchian, 
 J. V. Ortiz, A. F. Izmaylov, J. L. Sonnenberg, D. Williams-Young, 
 F. Ding, F. Lipparini, F. Egidi, J. Goings, B. Peng, A. Petrone, 
 T. Henderson, D. Ranasinghe, V. G. Zakrzewski, J. Gao, N. Rega, 
 G. Zheng, W. Liang, M. Hada, M. Ehara, K. Toyota, R. Fukuda, 
 J. Hasegawa, M. Ishida, T. Nakajima, Y. Honda, O. Kitao, H. Nakai, 
 T. Vreven, K. Throssell, J. A. Montgomery, Jr., J. E. Peralta, 
 F. Ogliaro, M. J. Bearpark, J. J. Heyd, E. N. Brothers, K. N. Kudin, 
 V. N. Staroverov, T. A. Keith, R. Kobayashi, J. Normand, 
 K. Raghavachari, A. P. Rendell, J. C. Burant, S. S. Iyengar, 
 J. Tomasi, M. Cossi, J. M. Millam, M. Klene, C. Adamo, R. Cammi, 
 J. W. Ochterski, R. L. Martin, K. Morokuma, O. Farkas, 
 J. B. Foresman, and D. J. Fox, Gaussian, Inc., Wallingford CT, 2016.
 
 ******************************************
 Gaussian 16:  EM64M-G16RevA.03 25-Dec-2016
                 6-Sep-2024 
 ******************************************
 %chk=H2O_DFT_uB3LPY_6311pp2d3p_Opt_Freq_Full.chk
 ----------------------------------------------------------------------
 #p opt=tight freq=raman ub3lyp/6-311++g(2d,3p) guess=save pop=(hirshfe
 ld,full,nbo) geom=connectivity polar
 ----------------------------------------------------------------------
 1/7=10,18=20,19=15,26=3,38=1,57=2/1,3;
 2/9=110,12=2,17=6,18=5,40=1/2;
 3/5=4,6=6,7=1512,11=2,25=1,30=1,71=1,74=-5,116=2/1,2,3;
 4//1;
 5/5=2,38=5,98=1/2;
 6/7=3,28=1,40=1,79=1/1,7;
 7//1,2,3,16;
 1/7=10,18=20,19=15,26=3/3(2);
 2/9=110/2;
 99//99;
 2/9=110/2;
 3/5=4,6=6,7=1512,11=2,25=1,30=1,71=1,74=-5,116=2/1,2,3;
 4/5=5,16=3,69=1/1;
 5/5=2,38=5,98=1/2;
 7//1,2,3,16;
 1/7=10,18=20,19=15,26=3/3(-5);
 2/9=110/2;
 6/7=3,19=2,28=1,40=1,79=1/1,7;
 99/9=1/99;
 Leave Link    1 at Fri Sep  6 10:40:12 2024, MaxMem=           0 cpu:               0.0 elap:               0.0
 (Enter /Users/asuyarger/Applications/G16/g16/l101.exe)
 ----------------------------------------------------
 H2O DFT uB3LPY 6-311++g(2d,3p) Opt Freq - Full - NBO
 ----------------------------------------------------
 Symbolic Z-matrix:
 Charge =  0 Multiplicity = 1
 O                    -0.3165    0.44293   0.00414 
 H                     0.6435    0.44317   0.00414 
 H                    -0.63673   1.34795   0.00414 
 
 ITRead=  0  0  0
 MicOpt= -1 -1 -1
 NAtoms=      3 NQM=        3 NQMF=       0 NMMI=      0 NMMIF=      0
                NMic=       0 NMicF=      0.
                    Isotopes and Nuclear Properties:
 (Nuclear quadrupole moments (NQMom) in fm**2, nuclear magnetic moments (NMagM)
  in nuclear magnetons)

  Atom         1           2           3
 IAtWgt=          16           1           1
 AtmWgt=  15.9949146   1.0078250   1.0078250
 NucSpn=           0           1           1
 AtZEff=  -0.0000000  -0.0000000  -0.0000000
 NQMom=    0.0000000   0.0000000   0.0000000
 NMagM=    0.0000000   2.7928460   2.7928460
 AtZNuc=   8.0000000   1.0000000   1.0000000
 Leave Link  101 at Fri Sep  6 10:40:13 2024, MaxMem=   104857600 cpu:               0.1 elap:               0.1
 (Enter /Users/asuyarger/Applications/G16/g16/l103.exe)

 GradGradGradGradGradGradGradGradGradGradGradGradGradGradGradGradGradGrad
 Berny optimization.
 Initialization pass.
                           ----------------------------
                           !    Initial Parameters    !
                           ! (Angstroms and Degrees)  !
 --------------------------                            --------------------------
 ! Name  Definition              Value          Derivative Info.                !
 --------------------------------------------------------------------------------
 ! R1    R(1,2)                  0.96           estimate D2E/DX2                !
 ! R2    R(1,3)                  0.96           estimate D2E/DX2                !
 ! A1    A(2,1,3)              109.4712         estimate D2E/DX2                !
 --------------------------------------------------------------------------------
 Trust Radius=3.00D-01 FncErr=1.00D-07 GrdErr=1.00D-06 EigMax=2.50D+02 EigMin=1.00D-04
 Number of steps in this run=     20 maximum allowed number of steps=    100.
 GradGradGradGradGradGradGradGradGradGradGradGradGradGradGradGradGradGrad

 Leave Link  103 at Fri Sep  6 10:40:13 2024, MaxMem=   104857600 cpu:               0.0 elap:               0.0
 (Enter /Users/asuyarger/Applications/G16/g16/l202.exe)
                          Input orientation:                          
 ---------------------------------------------------------------------
 Center     Atomic      Atomic             Coordinates (Angstroms)
 Number     Number       Type             X           Y           Z
 ---------------------------------------------------------------------
      1          8           0       -0.316504    0.442931    0.004142
      2          1           0        0.643496    0.443172    0.004142
      3          1           0       -0.636732    1.347947    0.004142
 ---------------------------------------------------------------------
                    Distance matrix (angstroms):
                    1          2          3
     1  O    0.000000
     2  H    0.960000   0.000000
     3  H    0.960000   1.567673   0.000000
 Stoichiometry    H2O
 Framework group  C2V[C2(O),SGV(H2)]
 Deg. of freedom     2
 Full point group                 C2V     NOp   4
 Largest Abelian subgroup         C2V     NOp   4
 Largest concise Abelian subgroup C2      NOp   2
                         Standard orientation:                         
 ---------------------------------------------------------------------
 Center     Atomic      Atomic             Coordinates (Angstroms)
 Number     Number       Type             X           Y           Z
 ---------------------------------------------------------------------
      1          8           0        0.000000   -0.000000    0.110851
      2          1           0       -0.000000   -0.783837   -0.443405
      3          1           0        0.000000    0.783837   -0.443405
 ---------------------------------------------------------------------
 Rotational constants (GHZ):         919.0226998         408.0852142         282.5991552
 Leave Link  202 at Fri Sep  6 10:40:13 2024, MaxMem=   104857600 cpu:               0.0 elap:               0.0
 (Enter /Users/asuyarger/Applications/G16/g16/l301.exe)
 Standard basis: 6-311++G(2d,3p) (5D, 7F)
 Ernie: Thresh=  0.10000D-02 Tol=  0.10000D-05 Strict=F.
 There are    25 symmetry adapted cartesian basis functions of A1  symmetry.
 There are     5 symmetry adapted cartesian basis functions of A2  symmetry.
 There are     9 symmetry adapted cartesian basis functions of B1  symmetry.
 There are    16 symmetry adapted cartesian basis functions of B2  symmetry.
 There are    23 symmetry adapted basis functions of A1  symmetry.
 There are     5 symmetry adapted basis functions of A2  symmetry.
 There are     9 symmetry adapted basis functions of B1  symmetry.
 There are    16 symmetry adapted basis functions of B2  symmetry.
    53 basis functions,    72 primitive gaussians,    55 cartesian basis functions
     5 alpha electrons        5 beta electrons
       nuclear repulsion energy         9.1571759434 Hartrees.
 IExCor=  402 DFT=T Ex+Corr=B3LYP ExCW=0 ScaHFX=  0.200000
 ScaDFX=  0.800000  0.720000  1.000000  0.810000 ScalE2=  1.000000  1.000000
 IRadAn=      5 IRanWt=     -1 IRanGd=            0 ICorTp=0 IEmpDi=  4
 NAtoms=    3 NActive=    3 NUniq=    2 SFac= 2.25D+00 NAtFMM=   60 NAOKFM=F Big=F
 Integral buffers will be    131072 words long.
 Raffenetti 2 integral format.
 Two-electron integral symmetry is turned on.
 Leave Link  301 at Fri Sep  6 10:40:13 2024, MaxMem=   104857600 cpu:               0.0 elap:               0.0
 (Enter /Users/asuyarger/Applications/G16/g16/l302.exe)
 NPDir=0 NMtPBC=     1 NCelOv=     1 NCel=       1 NClECP=     1 NCelD=      1
         NCelK=      1 NCelE2=     1 NClLst=     1 CellRange=     0.0.
 One-electron integrals computed using PRISM.
 One-electron integral symmetry used in STVInt
 NBasis=    53 RedAO= T EigKep=  1.58D-03  NBF=    23     5     9    16
 NBsUse=    53 1.00D-06 EigRej= -1.00D+00 NBFU=    23     5     9    16
 Precomputing XC quadrature grid using
 IXCGrd= 4 IRadAn=           5 IRanWt=          -1 IRanGd=           0 AccXCQ= 0.00D+00.
 Generated NRdTot=       0 NPtTot=           0 NUsed=           0 NTot=          32
 NSgBfM=    55    55    55    55    55 MxSgAt=     3 MxSgA2=     3.
 Leave Link  302 at Fri Sep  6 10:40:13 2024, MaxMem=   104857600 cpu:               0.1 elap:               0.1
 (Enter /Users/asuyarger/Applications/G16/g16/l303.exe)
 DipDrv:  MaxL=1.
 Leave Link  303 at Fri Sep  6 10:40:13 2024, MaxMem=   104857600 cpu:               0.0 elap:               0.0
 (Enter /Users/asuyarger/Applications/G16/g16/l401.exe)
 ExpMin= 3.60D-02 ExpMax= 8.59D+03 ExpMxC= 1.30D+03 IAcc=3 IRadAn=         5 AccDes= 0.00D+00
 Harris functional with IExCor=  402 and IRadAn=       5 diagonalized for initial guess.
 HarFok:  IExCor=  402 AccDes= 0.00D+00 IRadAn=         5 IDoV= 1 UseB2=F ITyADJ=14
 ICtDFT=  3500011 ScaDFX=  1.000000  1.000000  1.000000  1.000000
 FoFCou: FMM=F IPFlag=           0 FMFlag=      100000 FMFlg1=           0
         NFxFlg=           0 DoJE=T BraDBF=F KetDBF=T FulRan=T
         wScrn=  0.000000 ICntrl=       500 IOpCl=  0 I1Cent=   200000004 NGrid=           0
         NMat0=    1 NMatS0=      1 NMatT0=    0 NMatD0=    1 NMtDS0=    0 NMtDT0=    0
 Petite list used in FoFCou.
 Harris En= -76.4950377385080    
 JPrj=0 DoOrth=F DoCkMO=F.
 Initial guess orbital symmetries:
 Alpha Orbitals:
       Occupied  (A1) (A1) (B2) (A1) (B1)
       Virtual   (A1) (B2) (A1) (B2) (B1) (A1) (A1) (B2) (A1) (A2)
                 (B1) (B2) (A1) (B2) (A1) (B2) (A1) (B1) (B2) (A1)
                 (A2) (A1) (B1) (B2) (A1) (B2) (B1) (A2) (A1) (B2)
                 (A1) (A1) (B2) (B1) (A1) (B2) (A1) (B1) (A2) (A1)
                 (B2) (A2) (A1) (B1) (B2) (A1) (B2) (A1)
 Beta  Orbitals:
       Occupied  (A1) (A1) (B2) (A1) (B1)
       Virtual   (A1) (B2) (A1) (B2) (B1) (A1) (A1) (B2) (A1) (A2)
                 (B1) (B2) (A1) (B2) (A1) (B2) (A1) (B1) (B2) (A1)
                 (A2) (A1) (B1) (B2) (A1) (B2) (B1) (A2) (A1) (B2)
                 (A1) (A1) (B2) (B1) (A1) (B2) (A1) (B1) (A2) (A1)
                 (B2) (A2) (A1) (B1) (B2) (A1) (B2) (A1)
 The electronic state of the initial guess is 1-A1.
 Initial guess <Sx>= 0.0000 <Sy>= 0.0000 <Sz>= 0.0000 <S**2>=-0.0000 S=-0.0000
 Leave Link  401 at Fri Sep  6 10:40:13 2024, MaxMem=   104857600 cpu:               0.1 elap:               0.1
 (Enter /Users/asuyarger/Applications/G16/g16/l502.exe)
 Keep R1 and R2 ints in memory in symmetry-blocked form, NReq=1905302.
 FoFCou: FMM=F IPFlag=           0 FMFlag=           0 FMFlg1=           0
         NFxFlg=           0 DoJE=F BraDBF=F KetDBF=F FulRan=T
         wScrn=  0.000000 ICntrl=       600 IOpCl=  0 I1Cent=           0 NGrid=           0
         NMat0=    1 NMatS0=   1431 NMatT0=    0 NMatD0=    1 NMtDS0=    0 NMtDT0=    0
 Petite list used in FoFCou.
 UHF open shell SCF:
 Using DIIS extrapolation, IDIIS=  1040.
 NGot=   104857600 LenX=   104301629 LenY=   104298163
 Requested convergence on RMS density matrix=1.00D-08 within 128 cycles.
 Requested convergence on MAX density matrix=1.00D-06.
 Requested convergence on             energy=1.00D-06.
 No special actions if energy rises.

 Cycle   1  Pass 1  IDiag  1:
 E= -76.3770894651147    
 DIIS: error= 7.07D-02 at cycle   1 NSaved=   1.
 NSaved= 1 IEnMin= 1 EnMin= -76.3770894651147     IErMin= 1 ErrMin= 7.07D-02
 ErrMax= 7.07D-02  0.00D+00 EMaxC= 1.00D-01 BMatC= 5.10D-01 BMatP= 5.10D-01
 IDIUse=3 WtCom= 2.93D-01 WtEn= 7.07D-01
 Coeff-Com:  0.100D+01
 Coeff-En:   0.100D+01
 Coeff:      0.100D+01
 Gap=     0.132 Goal=   None    Shift=    0.000
 Gap=     0.132 Goal=   None    Shift=    0.000
 GapD=    0.132 DampG=1.000 DampE=0.500 DampFc=0.5000 IDamp=-1.
 Damping current iteration by 5.00D-01
 RMSDP=9.33D-03 MaxDP=1.16D-01              OVMax= 2.41D-01

 Cycle   2  Pass 1  IDiag  1:
 E= -76.3884777211844     Delta-E=       -0.011388256070 Rises=F Damp=T
 DIIS: error= 3.00D-02 at cycle   2 NSaved=   2.
 NSaved= 2 IEnMin= 2 EnMin= -76.3884777211844     IErMin= 2 ErrMin= 3.00D-02
 ErrMax= 3.00D-02  0.00D+00 EMaxC= 1.00D-01 BMatC= 6.77D-02 BMatP= 5.10D-01
 IDIUse=3 WtCom= 7.00D-01 WtEn= 3.00D-01
 Coeff-Com:  0.259D+00 0.741D+00
 Coeff-En:   0.444D+00 0.556D+00
 Coeff:      0.315D+00 0.685D+00
 Gap=     0.284 Goal=   None    Shift=    0.000
 Gap=     0.284 Goal=   None    Shift=    0.000
 RMSDP=1.63D-03 MaxDP=2.43D-02 DE=-1.14D-02 OVMax= 1.58D-01

 Cycle   3  Pass 1  IDiag  1:
 E= -76.4615166435689     Delta-E=       -0.073038922384 Rises=F Damp=F
 DIIS: error= 4.41D-03 at cycle   3 NSaved=   3.
 NSaved= 3 IEnMin= 3 EnMin= -76.4615166435689     IErMin= 3 ErrMin= 4.41D-03
 ErrMax= 4.41D-03  0.00D+00 EMaxC= 1.00D-01 BMatC= 2.15D-03 BMatP= 6.77D-02
 IDIUse=3 WtCom= 9.56D-01 WtEn= 4.41D-02
 Coeff-Com:  0.567D-01-0.104D-01 0.954D+00
 Coeff-En:   0.000D+00 0.000D+00 0.100D+01
 Coeff:      0.542D-01-0.998D-02 0.956D+00
 Gap=     0.300 Goal=   None    Shift=    0.000
 Gap=     0.300 Goal=   None    Shift=    0.000
 RMSDP=2.55D-04 MaxDP=5.54D-03 DE=-7.30D-02 OVMax= 4.19D-03

 Cycle   4  Pass 1  IDiag  1:
 E= -76.4618126176468     Delta-E=       -0.000295974078 Rises=F Damp=F
 DIIS: error= 5.00D-04 at cycle   4 NSaved=   4.
 NSaved= 4 IEnMin= 4 EnMin= -76.4618126176468     IErMin= 4 ErrMin= 5.00D-04
 ErrMax= 5.00D-04  0.00D+00 EMaxC= 1.00D-01 BMatC= 2.19D-05 BMatP= 2.15D-03
 IDIUse=3 WtCom= 9.95D-01 WtEn= 5.00D-03
 Coeff-Com:  0.864D-02-0.162D-01 0.161D+00 0.847D+00
 Coeff-En:   0.000D+00 0.000D+00 0.000D+00 0.100D+01
 Coeff:      0.860D-02-0.161D-01 0.160D+00 0.848D+00
 Gap=     0.301 Goal=   None    Shift=    0.000
 Gap=     0.301 Goal=   None    Shift=    0.000
 RMSDP=1.78D-05 MaxDP=2.71D-04 DE=-2.96D-04 OVMax= 5.28D-04

 Cycle   5  Pass 1  IDiag  1:
 E= -76.4618158572996     Delta-E=       -0.000003239653 Rises=F Damp=F
 DIIS: error= 1.58D-04 at cycle   5 NSaved=   5.
 NSaved= 5 IEnMin= 5 EnMin= -76.4618158572996     IErMin= 5 ErrMin= 1.58D-04
 ErrMax= 1.58D-04  0.00D+00 EMaxC= 1.00D-01 BMatC= 2.41D-06 BMatP= 2.19D-05
 IDIUse=3 WtCom= 9.98D-01 WtEn= 1.58D-03
 Coeff-Com:  0.240D-02-0.433D-02 0.227D-01 0.159D+00 0.821D+00
 Coeff-En:   0.000D+00 0.000D+00 0.000D+00 0.000D+00 0.100D+01
 Coeff:      0.239D-02-0.433D-02 0.227D-01 0.158D+00 0.821D+00
 Gap=     0.301 Goal=   None    Shift=    0.000
 Gap=     0.301 Goal=   None    Shift=    0.000
 RMSDP=8.17D-06 MaxDP=9.49D-05 DE=-3.24D-06 OVMax= 1.93D-04

 Cycle   6  Pass 1  IDiag  1:
 E= -76.4618163118799     Delta-E=       -0.000000454580 Rises=F Damp=F
 DIIS: error= 1.93D-05 at cycle   6 NSaved=   6.
 NSaved= 6 IEnMin= 6 EnMin= -76.4618163118799     IErMin= 6 ErrMin= 1.93D-05
 ErrMax= 1.93D-05  0.00D+00 EMaxC= 1.00D-01 BMatC= 2.60D-08 BMatP= 2.41D-06
 IDIUse=1 WtCom= 1.00D+00 WtEn= 0.00D+00
 Coeff-Com:  0.134D-03-0.330D-03 0.177D-02-0.118D-01-0.101D-01 0.102D+01
 Coeff:      0.134D-03-0.330D-03 0.177D-02-0.118D-01-0.101D-01 0.102D+01
 Gap=     0.301 Goal=   None    Shift=    0.000
 Gap=     0.301 Goal=   None    Shift=    0.000
 RMSDP=6.44D-07 MaxDP=1.09D-05 DE=-4.55D-07 OVMax= 2.38D-05

 Cycle   7  Pass 1  IDiag  1:
 E= -76.4618163168996     Delta-E=       -0.000000005020 Rises=F Damp=F
 DIIS: error= 1.71D-06 at cycle   7 NSaved=   7.
 NSaved= 7 IEnMin= 7 EnMin= -76.4618163168996     IErMin= 7 ErrMin= 1.71D-06
 ErrMax= 1.71D-06  0.00D+00 EMaxC= 1.00D-01 BMatC= 2.19D-10 BMatP= 2.60D-08
 IDIUse=1 WtCom= 1.00D+00 WtEn= 0.00D+00
 Coeff-Com: -0.833D-06 0.547D-05-0.890D-05-0.161D-03-0.582D-02-0.511D-01
 Coeff-Com:  0.106D+01
 Coeff:     -0.833D-06 0.547D-05-0.890D-05-0.161D-03-0.582D-02-0.511D-01
 Coeff:      0.106D+01
 Gap=     0.301 Goal=   None    Shift=    0.000
 Gap=     0.301 Goal=   None    Shift=    0.000
 RMSDP=6.79D-08 MaxDP=1.01D-06 DE=-5.02D-09 OVMax= 2.28D-06

 Cycle   8  Pass 1  IDiag  1:
 E= -76.4618163169427     Delta-E=       -0.000000000043 Rises=F Damp=F
 DIIS: error= 1.26D-08 at cycle   8 NSaved=   8.
 NSaved= 8 IEnMin= 8 EnMin= -76.4618163169427     IErMin= 8 ErrMin= 1.26D-08
 ErrMax= 1.26D-08  0.00D+00 EMaxC= 1.00D-01 BMatC= 2.29D-14 BMatP= 2.19D-10
 IDIUse=1 WtCom= 1.00D+00 WtEn= 0.00D+00
 Coeff-Com: -0.117D-06 0.374D-06-0.290D-05 0.282D-04 0.424D-03 0.883D-03
 Coeff-Com: -0.540D-01 0.105D+01
 Coeff:     -0.117D-06 0.374D-06-0.290D-05 0.282D-04 0.424D-03 0.883D-03
 Coeff:     -0.540D-01 0.105D+01
 Gap=     0.301 Goal=   None    Shift=    0.000
 Gap=     0.301 Goal=   None    Shift=    0.000
 RMSDP=3.20D-09 MaxDP=3.67D-08 DE=-4.30D-11 OVMax= 8.95D-08

 SCF Done:  E(UB3LYP) =  -76.4618163169     A.U. after    8 cycles
            NFock=  8  Conv=0.32D-08     -V/T= 2.0033
 <Sx>= 0.0000 <Sy>= 0.0000 <Sz>= 0.0000 <S**2>=-0.0000 S=-0.0000
 <L.S>= 0.000000000000E+00
 KE= 7.620834733902D+01 PE=-1.991919786111D+02 EE= 3.736463901174D+01
 Annihilation of the first spin contaminant:
 S**2 before annihilation    -0.0000,   after     0.0000
 Leave Link  502 at Fri Sep  6 10:40:14 2024, MaxMem=   104857600 cpu:               0.8 elap:               0.8
 (Enter /Users/asuyarger/Applications/G16/g16/l601.exe)
 Copying SCF densities to generalized density rwf, IOpCl= 1 IROHF=0.

 **********************************************************************

            Population analysis using the SCF density.

 **********************************************************************

 Orbital symmetries:
 Alpha Orbitals:
       Occupied  (A1) (A1) (B2) (A1) (B1)
       Virtual   (A1) (B2) (A1) (A1) (B1) (B2) (A1) (B2) (A1) (A2)
                 (B1) (B2) (A1) (B2) (A1) (B2) (A1) (B1) (B2) (A1)
                 (A2) (A1) (B1) (B2) (B2) (A1) (B1) (A2) (A1) (B2)
                 (A1) (A1) (B2) (B1) (A1) (B2) (A1) (B1) (A2) (A1)
                 (B2) (A2) (A1) (B1) (B2) (A1) (B2) (A1)
 Beta  Orbitals:
       Occupied  (A1) (A1) (B2) (A1) (B1)
       Virtual   (A1) (B2) (A1) (A1) (B1) (B2) (A1) (B2) (A1) (A2)
                 (B1) (B2) (A1) (B2) (A1) (B2) (A1) (B1) (B2) (A1)
                 (A2) (A1) (B1) (B2) (B2) (A1) (B1) (A2) (A1) (B2)
                 (A1) (A1) (B2) (B1) (A1) (B2) (A1) (B1) (A2) (A1)
                 (B2) (A2) (A1) (B1) (B2) (A1) (B2) (A1)
 The electronic state is 1-A1.
 Alpha  occ. eigenvalues --  -19.13226  -1.01949  -0.55046  -0.39139  -0.32267
 Alpha virt. eigenvalues --   -0.02130   0.02921   0.13901   0.15042   0.15133
 Alpha virt. eigenvalues --    0.15338   0.20568   0.21513   0.34618   0.35046
 Alpha virt. eigenvalues --    0.40300   0.45006   0.52133   0.54632   0.67306
 Alpha virt. eigenvalues --    0.75438   0.98965   1.02834   1.03088   1.39839
 Alpha virt. eigenvalues --    1.46310   1.48893   1.54437   1.87780   1.99763
 Alpha virt. eigenvalues --    2.00153   2.04652   2.09565   2.32209   2.47086
 Alpha virt. eigenvalues --    2.51849   2.84870   3.02556   4.97447   5.33537
 Alpha virt. eigenvalues --    5.80488   6.74032   6.80896   6.84057   6.92861
 Alpha virt. eigenvalues --    7.03421   8.15226   8.16584   8.19316   8.30546
 Alpha virt. eigenvalues --    8.55687   8.76684  49.95732
  Beta  occ. eigenvalues --  -19.13226  -1.01949  -0.55046  -0.39139  -0.32267
  Beta virt. eigenvalues --   -0.02130   0.02921   0.13901   0.15042   0.15133
  Beta virt. eigenvalues --    0.15338   0.20568   0.21513   0.34618   0.35046
  Beta virt. eigenvalues --    0.40300   0.45006   0.52133   0.54632   0.67306
  Beta virt. eigenvalues --    0.75438   0.98965   1.02834   1.03088   1.39839
  Beta virt. eigenvalues --    1.46310   1.48893   1.54437   1.87780   1.99763
  Beta virt. eigenvalues --    2.00153   2.04652   2.09565   2.32209   2.47086
  Beta virt. eigenvalues --    2.51849   2.84870   3.02556   4.97447   5.33537
  Beta virt. eigenvalues --    5.80488   6.74032   6.80896   6.84057   6.92861
  Beta virt. eigenvalues --    7.03421   8.15226   8.16584   8.19316   8.30546
  Beta virt. eigenvalues --    8.55687   8.76684  49.95732
     Alpha Molecular Orbital Coefficients:
                           1         2         3         4         5
                        (A1)--O   (A1)--O   (B2)--O   (A1)--O   (B1)--O
     Eigenvalues --   -19.13226  -1.01949  -0.55046  -0.39139  -0.32267
   1 1   O  1S          0.55133  -0.11674   0.00000  -0.04144   0.00000
   2        2S          0.46968  -0.18688   0.00000  -0.06757   0.00000
   3        2PX         0.00000   0.00000   0.00000   0.00000   0.29733
   4        2PY         0.00000   0.00000   0.24232   0.00000   0.00000
   5        2PZ        -0.00123  -0.05062   0.00000   0.26461   0.00000
   6        3S          0.01404   0.53983   0.00000   0.20403   0.00000
   7        3PX         0.00000   0.00000   0.00000   0.00000   0.43429
   8        3PY         0.00000   0.00000   0.34710   0.00000   0.00000
   9        3PZ        -0.00034  -0.07892   0.00000   0.37933   0.00000
  10        4S         -0.01432   0.42890   0.00000   0.32132   0.00000
  11        4PX         0.00000   0.00000   0.00000   0.00000   0.38388
  12        4PY         0.00000   0.00000   0.22899   0.00000   0.00000
  13        4PZ         0.00234  -0.05044   0.00000   0.28420   0.00000
  14        5S         -0.00631   0.03457   0.00000   0.12499   0.00000
  15        5PX         0.00000   0.00000   0.00000   0.00000   0.09221
  16        5PY         0.00000   0.00000   0.01536   0.00000   0.00000
  17        5PZ         0.00172  -0.00599   0.00000   0.03827   0.00000
  18        6D 0        0.00003   0.00074   0.00000  -0.00458   0.00000
  19        6D+1        0.00000   0.00000   0.00000   0.00000  -0.00459
  20        6D-1        0.00000   0.00000  -0.01176   0.00000   0.00000
  21        6D+2       -0.00024  -0.00466   0.00000   0.00284   0.00000
  22        6D-2        0.00000   0.00000   0.00000   0.00000   0.00000
  23        7D 0       -0.00010   0.00372   0.00000  -0.02260   0.00000
  24        7D+1        0.00000   0.00000   0.00000   0.00000  -0.02205
  25        7D-1        0.00000   0.00000  -0.02009   0.00000   0.00000
  26        7D+2        0.00015  -0.00974   0.00000  -0.00603   0.00000
  27        7D-2        0.00000   0.00000   0.00000   0.00000   0.00000
  28 2   H  1S         -0.00011   0.09882  -0.15447  -0.08605   0.00000
  29        2S          0.00200   0.05449  -0.17986  -0.14009   0.00000
  30        3S          0.00645  -0.02821  -0.03979  -0.08381   0.00000
  31        4S         -0.00046   0.00496  -0.01029  -0.00264   0.00000
  32        5PX         0.00000   0.00000   0.00000   0.00000   0.00335
  33        5PY         0.00002   0.00461  -0.00348  -0.00269   0.00000
  34        5PZ         0.00004   0.00277  -0.00387   0.00110   0.00000
  35        6PX         0.00000   0.00000   0.00000   0.00000   0.02333
  36        6PY        -0.00064   0.01397  -0.01052  -0.01863   0.00000
  37        6PZ        -0.00059   0.00834  -0.01778   0.00484   0.00000
  38        7PX         0.00000   0.00000   0.00000   0.00000   0.02584
  39        7PY         0.00264  -0.01235   0.00518  -0.01838   0.00000
  40        7PZ         0.00184  -0.00949   0.00542   0.01461   0.00000
  41 3   H  1S         -0.00011   0.09882   0.15447  -0.08605   0.00000
  42        2S          0.00200   0.05449   0.17986  -0.14009   0.00000
  43        3S          0.00645  -0.02821   0.03979  -0.08381   0.00000
  44        4S         -0.00046   0.00496   0.01029  -0.00264   0.00000
  45        5PX         0.00000   0.00000   0.00000   0.00000   0.00335
  46        5PY        -0.00002  -0.00461  -0.00348   0.00269   0.00000
  47        5PZ         0.00004   0.00277   0.00387   0.00110   0.00000
  48        6PX         0.00000   0.00000   0.00000   0.00000   0.02333
  49        6PY         0.00064  -0.01397  -0.01052   0.01863   0.00000
  50        6PZ        -0.00059   0.00834   0.01778   0.00484   0.00000
  51        7PX         0.00000   0.00000   0.00000   0.00000   0.02584
  52        7PY        -0.00264   0.01235   0.00518   0.01838   0.00000
  53        7PZ         0.00184  -0.00949  -0.00542   0.01461   0.00000
                           6         7         8         9        10
                        (A1)--V   (B2)--V   (A1)--V   (A1)--V   (B1)--V
     Eigenvalues --    -0.02130   0.02921   0.13901   0.15042   0.15133
   1 1   O  1S         -0.03029   0.00000   0.02934  -0.02351   0.00000
   2        2S         -0.05044   0.00000   0.04783  -0.03844   0.00000
   3        2PX         0.00000   0.00000   0.00000   0.00000  -0.13683
   4        2PY         0.00000   0.08380   0.00000   0.00000   0.00000
   5        2PZ        -0.06831   0.00000   0.12140   0.08303   0.00000
   6        3S          0.17155   0.00000  -0.13965   0.13051   0.00000
   7        3PX         0.00000   0.00000   0.00000   0.00000  -0.14871
   8        3PY         0.00000   0.12811   0.00000   0.00000   0.00000
   9        3PZ        -0.10075   0.00000   0.16488   0.08375   0.00000
  10        4S          0.29186   0.00000  -0.50470   0.16689   0.00000
  11        4PX         0.00000   0.00000   0.00000   0.00000  -0.48285
  12        4PY         0.00000   0.03938   0.00000   0.00000   0.00000
  13        4PZ        -0.16094   0.00000   0.27369   0.46286   0.00000
  14        5S          0.84381   0.00000  -1.47576   2.43310   0.00000
  15        5PX         0.00000   0.00000   0.00000   0.00000   1.29067
  16        5PY         0.00000   0.40636   0.00000   0.00000   0.00000
  17        5PZ        -0.11187   0.00000   0.35269  -2.05814   0.00000
  18        6D 0        0.00097   0.00000  -0.00269  -0.00033   0.00000
  19        6D+1        0.00000   0.00000   0.00000   0.00000   0.00227
  20        6D-1        0.00000  -0.00140   0.00000   0.00000   0.00000
  21        6D+2        0.00072   0.00000  -0.00240   0.00193   0.00000
  22        6D-2        0.00000   0.00000   0.00000   0.00000   0.00000
  23        7D 0        0.00693   0.00000  -0.00944  -0.01054   0.00000
  24        7D+1        0.00000   0.00000   0.00000   0.00000   0.00913
  25        7D-1        0.00000   0.00962   0.00000   0.00000   0.00000
  26        7D+2       -0.00042   0.00000  -0.02630   0.03193   0.00000
  27        7D-2        0.00000   0.00000   0.00000   0.00000   0.00000
  28 2   H  1S         -0.01915   0.00067   0.07461  -0.04150   0.00000
  29        2S         -0.10962  -0.00354   0.01042   0.09655   0.00000
  30        3S         -0.37794   0.16023   2.00874  -1.89921   0.00000
  31        4S         -0.58647   2.05679  -0.84087   0.17854   0.00000
  32        5PX         0.00000   0.00000   0.00000   0.00000  -0.00299
  33        5PY         0.00275  -0.00160  -0.00461  -0.00331   0.00000
  34        5PZ         0.00116  -0.00085  -0.00131  -0.00026   0.00000
  35        6PX         0.00000   0.00000   0.00000   0.00000   0.02175
  36        6PY         0.01341  -0.01393  -0.01995   0.03991   0.00000
  37        6PZ         0.00740  -0.01742  -0.00984  -0.00308   0.00000
  38        7PX         0.00000   0.00000   0.00000   0.00000  -0.05951
  39        7PY        -0.00118  -0.09190  -0.06765   0.01473   0.00000
  40        7PZ         0.00687  -0.02842  -0.00949   0.00251   0.00000
  41 3   H  1S         -0.01915  -0.00067   0.07461  -0.04150   0.00000
  42        2S         -0.10962   0.00354   0.01042   0.09655   0.00000
  43        3S         -0.37794  -0.16023   2.00874  -1.89921   0.00000
  44        4S         -0.58647  -2.05679  -0.84087   0.17854   0.00000
  45        5PX         0.00000   0.00000   0.00000   0.00000  -0.00299
  46        5PY        -0.00275  -0.00160   0.00461   0.00331   0.00000
  47        5PZ         0.00116   0.00085  -0.00131  -0.00026   0.00000
  48        6PX         0.00000   0.00000   0.00000   0.00000   0.02175
  49        6PY        -0.01341  -0.01393   0.01995  -0.03991   0.00000
  50        6PZ         0.00740   0.01742  -0.00984  -0.00308   0.00000
  51        7PX         0.00000   0.00000   0.00000   0.00000  -0.05951
  52        7PY         0.00118  -0.09190   0.06765  -0.01473   0.00000
  53        7PZ         0.00687   0.02842  -0.00949   0.00251   0.00000
                          11        12        13        14        15
                        (B2)--V   (A1)--V   (B2)--V   (A1)--V   (A2)--V
     Eigenvalues --     0.15338   0.20568   0.21513   0.34618   0.35046
   1 1   O  1S          0.00000   0.02538   0.00000   0.00446   0.00000
   2        2S          0.00000   0.04316   0.00000   0.00838   0.00000
   3        2PX         0.00000   0.00000   0.00000   0.00000   0.00000
   4        2PY         0.11870   0.00000  -0.12504   0.00000   0.00000
   5        2PZ         0.00000  -0.01160   0.00000  -0.04580   0.00000
   6        3S          0.00000  -0.16945   0.00000  -0.06986   0.00000
   7        3PX         0.00000   0.00000   0.00000   0.00000   0.00000
   8        3PY         0.13673   0.00000  -0.17500   0.00000   0.00000
   9        3PZ         0.00000   0.03046   0.00000  -0.02981   0.00000
  10        4S          0.00000   0.33412   0.00000   0.58871   0.00000
  11        4PX         0.00000   0.00000   0.00000   0.00000   0.00000
  12        4PY         0.47851   0.00000  -0.46130   0.00000   0.00000
  13        4PZ         0.00000  -0.44354   0.00000  -0.71916   0.00000
  14        5S          0.00000  10.63783   0.00000   5.14001   0.00000
  15        5PX         0.00000   0.00000   0.00000   0.00000   0.00000
  16        5PY         2.14616   0.00000   3.01811   0.00000   0.00000
  17        5PZ         0.00000  -2.55111   0.00000  -2.21875   0.00000
  18        6D 0        0.00000  -0.00015   0.00000  -0.01321   0.00000
  19        6D+1        0.00000   0.00000   0.00000   0.00000   0.00000
  20        6D-1        0.00652   0.00000   0.00271   0.00000   0.00000
  21        6D+2        0.00000   0.00821   0.00000  -0.00422   0.00000
  22        6D-2        0.00000   0.00000   0.00000   0.00000  -0.01322
  23        7D 0        0.00000   0.00866   0.00000  -0.01426   0.00000
  24        7D+1        0.00000   0.00000   0.00000   0.00000   0.00000
  25        7D-1        0.03152   0.00000   0.04678   0.00000   0.00000
  26        7D+2        0.00000  -0.00084   0.00000  -0.03372   0.00000
  27        7D-2        0.00000   0.00000   0.00000   0.00000  -0.02401
  28 2   H  1S          0.07504  -0.01227  -0.00524   0.02571   0.00000
  29        2S          0.10767  -0.17675  -0.11739  -0.16517   0.00000
  30        3S          3.93859  -5.26192   1.74787  -3.05716   0.00000
  31        4S         -1.22947  -0.53559   2.03589  -0.00547   0.00000
  32        5PX         0.00000   0.00000   0.00000   0.00000   0.01416
  33        5PY         0.00011  -0.00234   0.00427  -0.00399   0.00000
  34        5PZ        -0.00188  -0.00409   0.00568   0.01204   0.00000
  35        6PX         0.00000   0.00000   0.00000   0.00000  -0.03709
  36        6PY        -0.02793   0.00785  -0.00932  -0.01599   0.00000
  37        6PZ        -0.03043   0.00628  -0.03097  -0.03829   0.00000
  38        7PX         0.00000   0.00000   0.00000   0.00000   0.95852
  39        7PY         0.30946  -0.50131   0.13120  -0.76525   0.00000
  40        7PZ         0.12153  -0.37555   0.18660   0.61968   0.00000
  41 3   H  1S         -0.07504  -0.01227   0.00524   0.02571   0.00000
  42        2S         -0.10767  -0.17675   0.11739  -0.16517   0.00000
  43        3S         -3.93859  -5.26192  -1.74787  -3.05716   0.00000
  44        4S          1.22947  -0.53559  -2.03589  -0.00547   0.00000
  45        5PX         0.00000   0.00000   0.00000   0.00000  -0.01416
  46        5PY         0.00011   0.00234   0.00427   0.00399   0.00000
  47        5PZ         0.00188  -0.00409  -0.00568   0.01204   0.00000
  48        6PX         0.00000   0.00000   0.00000   0.00000   0.03709
  49        6PY        -0.02793  -0.00785  -0.00932   0.01599   0.00000
  50        6PZ         0.03043   0.00628   0.03097  -0.03829   0.00000
  51        7PX         0.00000   0.00000   0.00000   0.00000  -0.95852
  52        7PY         0.30946   0.50131   0.13120   0.76525   0.00000
  53        7PZ        -0.12153  -0.37555  -0.18660   0.61968   0.00000
                          16        17        18        19        20
                        (B1)--V   (B2)--V   (A1)--V   (B2)--V   (A1)--V
     Eigenvalues --     0.40300   0.45006   0.52133   0.54632   0.67306
   1 1   O  1S          0.00000   0.00000   0.01938   0.00000  -0.04884
   2        2S          0.00000   0.00000   0.03741   0.00000  -0.07755
   3        2PX        -0.07941   0.00000   0.00000   0.00000   0.00000
   4        2PY         0.00000  -0.09204   0.00000   0.07983   0.00000
   5        2PZ         0.00000   0.00000   0.10830   0.00000  -0.06032
   6        3S          0.00000   0.00000  -0.22536   0.00000   0.05525
   7        3PX        -0.05682   0.00000   0.00000   0.00000   0.00000
   8        3PY         0.00000  -0.23477   0.00000   0.13033   0.00000
   9        3PZ         0.00000   0.00000   0.20724   0.00000  -0.11552
  10        4S          0.00000   0.00000   1.38764   0.00000   6.24402
  11        4PX        -0.71972   0.00000   0.00000   0.00000   0.00000
  12        4PY         0.00000   0.81803   0.00000   0.56498   0.00000
  13        4PZ         0.00000   0.00000   0.17720   0.00000  -1.91234
  14        5S          0.00000   0.00000   6.89297   0.00000   8.74972
  15        5PX        -1.03990   0.00000   0.00000   0.00000   0.00000
  16        5PY         0.00000   3.18195   0.00000   1.60571   0.00000
  17        5PZ         0.00000   0.00000  -1.78133   0.00000  -1.64369
  18        6D 0        0.00000   0.00000  -0.00037   0.00000  -0.00048
  19        6D+1       -0.01041   0.00000   0.00000   0.00000   0.00000
  20        6D-1        0.00000  -0.00893   0.00000   0.00084   0.00000
  21        6D+2        0.00000   0.00000  -0.01209   0.00000   0.01520
  22        6D-2        0.00000   0.00000   0.00000   0.00000   0.00000
  23        7D 0        0.00000   0.00000  -0.01048   0.00000   0.01102
  24        7D+1       -0.02060   0.00000   0.00000   0.00000   0.00000
  25        7D-1        0.00000  -0.07664   0.00000  -0.04040   0.00000
  26        7D+2        0.00000   0.00000  -0.03207   0.00000  -0.10299
  27        7D-2        0.00000   0.00000   0.00000   0.00000   0.00000
  28 2   H  1S          0.00000  -0.11396   0.11483   0.02994  -0.04114
  29        2S          0.00000  -0.53596   1.22573   0.49907  -1.97815
  30        3S          0.00000   7.02986  -5.55048  -0.53275  -5.33071
  31        4S          0.00000  -0.99318   0.40746   0.85491  -0.27877
  32        5PX         0.01318   0.00000   0.00000   0.00000   0.00000
  33        5PY         0.00000   0.00273  -0.00504  -0.01273   0.00449
  34        5PZ         0.00000   0.00619  -0.00358   0.00922  -0.00101
  35        6PX        -0.04151   0.00000   0.00000   0.00000   0.00000
  36        6PY         0.00000  -0.01247  -0.00521   0.06560  -0.09820
  37        6PZ         0.00000   0.01178   0.02082  -0.03099  -0.04474
  38        7PX         1.18983   0.00000   0.00000   0.00000   0.00000
  39        7PY         0.00000   1.20882  -0.76773  -1.43538  -2.26044
  40        7PZ         0.00000   1.23583  -0.72122   1.05691  -1.53878
  41 3   H  1S          0.00000   0.11396   0.11483  -0.02994  -0.04114
  42        2S          0.00000   0.53596   1.22573  -0.49907  -1.97815
  43        3S          0.00000  -7.02986  -5.55048   0.53275  -5.33071
  44        4S          0.00000   0.99318   0.40746  -0.85491  -0.27877
  45        5PX         0.01318   0.00000   0.00000   0.00000   0.00000
  46        5PY         0.00000   0.00273   0.00504  -0.01273  -0.00449
  47        5PZ         0.00000  -0.00619  -0.00358  -0.00922  -0.00101
  48        6PX        -0.04151   0.00000   0.00000   0.00000   0.00000
  49        6PY         0.00000  -0.01247   0.00521   0.06560   0.09820
  50        6PZ         0.00000  -0.01178   0.02082   0.03099  -0.04474
  51        7PX         1.18983   0.00000   0.00000   0.00000   0.00000
  52        7PY         0.00000   1.20882   0.76773  -1.43538   2.26044
  53        7PZ         0.00000  -1.23583  -0.72122  -1.05691  -1.53878
                          21        22        23        24        25
                        (B2)--V   (A1)--V   (B1)--V   (B2)--V   (A1)--V
     Eigenvalues --     0.75438   0.98965   1.02834   1.03088   1.39839
   1 1   O  1S          0.00000   0.00919   0.00000   0.00000   0.07272
   2        2S          0.00000   0.01416   0.00000   0.00000   0.14720
   3        2PX         0.00000   0.00000  -0.25769   0.00000   0.00000
   4        2PY         0.14106   0.00000   0.00000  -0.21653   0.00000
   5        2PZ         0.00000  -0.24317   0.00000   0.00000  -0.01108
   6        3S          0.00000   0.12179   0.00000   0.00000  -1.30852
   7        3PX         0.00000   0.00000  -0.84005   0.00000   0.00000
   8        3PY         0.20671   0.00000   0.00000  -0.56879   0.00000
   9        3PZ         0.00000  -0.68942   0.00000   0.00000  -0.17443
  10        4S          0.00000  -2.36722   0.00000   0.00000   4.52074
  11        4PX         0.00000   0.00000   1.85103   0.00000   0.00000
  12        4PY         3.33363   0.00000   0.00000   4.05102   0.00000
  13        4PZ         0.00000   2.71085   0.00000   0.00000  -0.68345
  14        5S          0.00000   0.24966   0.00000   0.00000   1.02978
  15        5PX         0.00000   0.00000  -0.60075   0.00000   0.00000
  16        5PY         2.37533   0.00000   0.00000  -0.60010   0.00000
  17        5PZ         0.00000  -0.82069   0.00000   0.00000  -0.65923
  18        6D 0        0.00000   0.01089   0.00000   0.00000   0.01276
  19        6D+1        0.00000   0.00000   0.00953   0.00000   0.00000
  20        6D-1        0.02912   0.00000   0.00000   0.03716   0.00000
  21        6D+2        0.00000  -0.01282   0.00000   0.00000   0.02027
  22        6D-2        0.00000   0.00000   0.00000   0.00000   0.00000
  23        7D 0        0.00000   0.02618   0.00000   0.00000   0.20209
  24        7D+1        0.00000   0.00000   0.06006   0.00000   0.00000
  25        7D-1       -0.13640   0.00000   0.00000  -0.26194   0.00000
  26        7D+2        0.00000   0.08939   0.00000   0.00000   0.29907
  27        7D-2        0.00000   0.00000   0.00000   0.00000   0.00000
  28 2   H  1S          0.08039   0.01763   0.00000   0.05639  -0.07719
  29        2S          2.32536   1.44040   0.00000   1.89994  -0.71700
  30        3S          6.87728  -0.16126   0.00000   1.46822  -1.73808
  31        4S         -0.33439  -0.03021   0.00000  -0.92644   0.25975
  32        5PX         0.00000   0.00000   0.00639   0.00000   0.00000
  33        5PY         0.00587  -0.02007   0.00000  -0.00967   0.00391
  34        5PZ         0.00078  -0.00475   0.00000  -0.01238   0.02304
  35        6PX         0.00000   0.00000  -0.06632   0.00000   0.00000
  36        6PY         0.05178   0.27113   0.00000   0.31285  -0.08662
  37        6PZ         0.03992   0.12579   0.00000   0.24114  -0.43182
  38        7PX         0.00000   0.00000  -0.23254   0.00000   0.00000
  39        7PY         3.02084   0.34110   0.00000   0.49635  -0.83208
  40        7PZ         2.08681   0.01371   0.00000   0.91355  -0.16867
  41 3   H  1S         -0.08039   0.01763   0.00000  -0.05639  -0.07719
  42        2S         -2.32536   1.44040   0.00000  -1.89994  -0.71700
  43        3S         -6.87728  -0.16126   0.00000  -1.46822  -1.73808
  44        4S          0.33439  -0.03021   0.00000   0.92644   0.25975
  45        5PX         0.00000   0.00000   0.00639   0.00000   0.00000
  46        5PY         0.00587   0.02007   0.00000  -0.00967  -0.00391
  47        5PZ        -0.00078  -0.00475   0.00000   0.01238   0.02304
  48        6PX         0.00000   0.00000  -0.06632   0.00000   0.00000
  49        6PY         0.05178  -0.27113   0.00000   0.31285   0.08662
  50        6PZ        -0.03992   0.12579   0.00000  -0.24114  -0.43182
  51        7PX         0.00000   0.00000  -0.23254   0.00000   0.00000
  52        7PY         3.02084  -0.34110   0.00000   0.49635   0.83208
  53        7PZ        -2.08681   0.01371   0.00000  -0.91355  -0.16867
                          26        27        28        29        30
                        (A2)--V   (A1)--V   (B1)--V   (B2)--V   (B2)--V
     Eigenvalues --     1.46310   1.48893   1.54437   1.87780   1.99763
   1 1   O  1S          0.00000   0.04480   0.00000   0.00000   0.00000
   2        2S          0.00000   0.09050   0.00000   0.00000   0.00000
   3        2PX         0.00000   0.00000   0.07502   0.00000   0.00000
   4        2PY         0.00000   0.00000   0.00000  -0.00961  -0.14096
   5        2PZ         0.00000  -0.07087   0.00000   0.00000   0.00000
   6        3S          0.00000  -0.82580   0.00000   0.00000   0.00000
   7        3PX         0.00000   0.00000   0.16127   0.00000   0.00000
   8        3PY         0.00000   0.00000   0.00000   0.02855  -0.06062
   9        3PZ         0.00000  -0.23811   0.00000   0.00000   0.00000
  10        4S          0.00000   3.03408   0.00000   0.00000   0.00000
  11        4PX         0.00000   0.00000  -0.43453   0.00000   0.00000
  12        4PY         0.00000   0.00000   0.00000   2.17392   3.56975
  13        4PZ         0.00000  -0.33255   0.00000   0.00000   0.00000
  14        5S          0.00000  -1.67805   0.00000   0.00000   0.00000
  15        5PX         0.00000   0.00000  -0.47506   0.00000   0.00000
  16        5PY         0.00000   0.00000   0.00000  -0.78207   0.86141
  17        5PZ         0.00000   0.76635   0.00000   0.00000   0.00000
  18        6D 0        0.00000  -0.01651   0.00000   0.00000   0.00000
  19        6D+1        0.00000   0.00000   0.01473   0.00000   0.00000
  20        6D-1        0.00000   0.00000   0.00000  -0.01247  -0.00907
  21        6D+2        0.00000   0.00090   0.00000   0.00000   0.00000
  22        6D-2        0.02155   0.00000   0.00000   0.00000   0.00000
  23        7D 0        0.00000  -0.66521   0.00000   0.00000   0.00000
  24        7D+1        0.00000   0.00000   0.83291   0.00000   0.00000
  25        7D-1        0.00000   0.00000   0.00000  -0.49910  -1.24961
  26        7D+2        0.00000   0.10973   0.00000   0.00000   0.00000
  27        7D-2        0.66551   0.00000   0.00000   0.00000   0.00000
  28 2   H  1S          0.00000  -0.00087   0.00000  -0.16308  -0.44300
  29        2S          0.00000  -0.78617   0.00000   1.95900   3.46906
  30        3S          0.00000   0.39428   0.00000   0.68734   2.19202
  31        4S          0.00000   0.13743   0.00000  -0.31435   0.10679
  32        5PX         0.02632   0.00000   0.01988   0.00000   0.00000
  33        5PY         0.00000   0.02615   0.00000   0.01841  -0.01149
  34        5PZ         0.00000  -0.01019   0.00000  -0.04066   0.01542
  35        6PX        -0.49504   0.00000  -0.38094   0.00000   0.00000
  36        6PY         0.00000  -0.39940   0.00000  -0.42200   0.37062
  37        6PZ         0.00000   0.19185   0.00000   0.80062  -0.22759
  38        7PX         0.61436   0.00000   0.67078   0.00000   0.00000
  39        7PY         0.00000  -0.06131   0.00000   1.37813   1.25300
  40        7PZ         0.00000  -0.66094   0.00000  -0.01468   1.40919
  41 3   H  1S          0.00000  -0.00087   0.00000   0.16308   0.44300
  42        2S          0.00000  -0.78617   0.00000  -1.95900  -3.46906
  43        3S          0.00000   0.39428   0.00000  -0.68734  -2.19202
  44        4S          0.00000   0.13743   0.00000   0.31435  -0.10679
  45        5PX        -0.02632   0.00000   0.01988   0.00000   0.00000
  46        5PY         0.00000  -0.02615   0.00000   0.01841  -0.01149
  47        5PZ         0.00000  -0.01019   0.00000   0.04066  -0.01542
  48        6PX         0.49504   0.00000  -0.38094   0.00000   0.00000
  49        6PY         0.00000   0.39940   0.00000  -0.42200   0.37062
  50        6PZ         0.00000   0.19185   0.00000  -0.80062   0.22759
  51        7PX        -0.61436   0.00000   0.67078   0.00000   0.00000
  52        7PY         0.00000   0.06131   0.00000   1.37813   1.25300
  53        7PZ         0.00000  -0.66094   0.00000   0.01468  -1.40919
                          31        32        33        34        35
                        (A1)--V   (B1)--V   (A2)--V   (A1)--V   (B2)--V
     Eigenvalues --     2.00153   2.04652   2.09565   2.32209   2.47086
   1 1   O  1S          0.07704   0.00000   0.00000   0.03376   0.00000
   2        2S          0.15927   0.00000   0.00000   0.07956   0.00000
   3        2PX         0.00000  -0.04818   0.00000   0.00000   0.00000
   4        2PY         0.00000   0.00000   0.00000   0.00000   0.09775
   5        2PZ         0.07009   0.00000   0.00000  -0.06478   0.00000
   6        3S         -1.69038   0.00000   0.00000  -0.74673   0.00000
   7        3PX         0.00000  -0.03945   0.00000   0.00000   0.00000
   8        3PY         0.00000   0.00000   0.00000   0.00000   1.08172
   9        3PZ        -0.03791   0.00000   0.00000   0.29914   0.00000
  10        4S          8.94807   0.00000   0.00000   0.53588   0.00000
  11        4PX         0.00000  -0.49508   0.00000   0.00000   0.00000
  12        4PY         0.00000   0.00000   0.00000   0.00000   1.63577
  13        4PZ        -2.94881   0.00000   0.00000  -0.35772   0.00000
  14        5S          2.93233   0.00000   0.00000   2.11790   0.00000
  15        5PX         0.00000   0.34586   0.00000   0.00000   0.00000
  16        5PY         0.00000   0.00000   0.00000   0.00000  -0.93909
  17        5PZ        -0.40568   0.00000   0.00000  -0.37107   0.00000
  18        6D 0        0.00195   0.00000   0.00000   0.00036   0.00000
  19        6D+1        0.00000  -0.00685   0.00000   0.00000   0.00000
  20        6D-1        0.00000   0.00000   0.00000   0.00000   0.01761
  21        6D+2       -0.00892   0.00000   0.00000   0.00303   0.00000
  22        6D-2        0.00000   0.00000  -0.00651   0.00000   0.00000
  23        7D 0        0.15135   0.00000   0.00000   0.73422   0.00000
  24        7D+1        0.00000   0.78831   0.00000   0.00000   0.00000
  25        7D-1        0.00000   0.00000   0.00000   0.00000  -0.69741
  26        7D+2       -1.10632   0.00000   0.00000   0.15918   0.00000
  27        7D-2        0.00000   0.00000   1.04462   0.00000   0.00000
  28 2   H  1S          0.40367   0.00000   0.00000  -0.71094  -0.51606
  29        2S         -4.04241   0.00000   0.00000   1.20350   2.84570
  30        3S         -1.94106   0.00000   0.00000  -1.94727  -2.04562
  31        4S         -0.12458   0.00000   0.00000   0.16489   0.24396
  32        5PX         0.00000  -0.05333  -0.05178   0.00000   0.00000
  33        5PY         0.01008   0.00000   0.00000  -0.00759  -0.05136
  34        5PZ         0.00559   0.00000   0.00000  -0.05111  -0.04466
  35        6PX         0.00000   0.97630   0.91628   0.00000   0.00000
  36        6PY        -0.26437   0.00000   0.00000  -0.00842   1.21454
  37        6PZ        -0.16513   0.00000   0.00000   0.86562   0.90005
  38        7PX         0.00000  -0.31763  -0.25093   0.00000   0.00000
  39        7PY        -1.57166   0.00000   0.00000  -0.24253  -0.25691
  40        7PZ        -1.00043   0.00000   0.00000  -0.37443  -0.08965
  41 3   H  1S          0.40367   0.00000   0.00000  -0.71094   0.51606
  42        2S         -4.04241   0.00000   0.00000   1.20350  -2.84570
  43        3S         -1.94106   0.00000   0.00000  -1.94727   2.04562
  44        4S         -0.12458   0.00000   0.00000   0.16489  -0.24396
  45        5PX         0.00000  -0.05333   0.05178   0.00000   0.00000
  46        5PY        -0.01008   0.00000   0.00000   0.00759  -0.05136
  47        5PZ         0.00559   0.00000   0.00000  -0.05111   0.04466
  48        6PX         0.00000   0.97630  -0.91628   0.00000   0.00000
  49        6PY         0.26437   0.00000   0.00000   0.00842   1.21454
  50        6PZ        -0.16513   0.00000   0.00000   0.86562  -0.90005
  51        7PX         0.00000  -0.31763   0.25093   0.00000   0.00000
  52        7PY         1.57166   0.00000   0.00000   0.24253  -0.25691
  53        7PZ        -1.00043   0.00000   0.00000  -0.37443   0.08965
                          36        37        38        39        40
                        (A1)--V   (A1)--V   (B2)--V   (B1)--V   (A1)--V
     Eigenvalues --     2.51849   2.84870   3.02556   4.97447   5.33537
   1 1   O  1S          0.01494  -0.03971   0.00000   0.00000  -0.01621
   2        2S          0.03942  -0.07890   0.00000   0.00000  -0.03152
   3        2PX         0.00000   0.00000   0.00000  -1.27571   0.00000
   4        2PY         0.00000   0.00000   0.34488   0.00000   0.00000
   5        2PZ        -0.01333  -0.25383   0.00000   0.00000   1.28098
   6        3S         -0.31351   0.03566   0.00000   0.00000   0.04909
   7        3PX         0.00000   0.00000   0.00000   1.55040   0.00000
   8        3PY         0.00000   0.00000   0.25397   0.00000   0.00000
   9        3PZ         0.29803  -0.60982   0.00000   0.00000  -1.91734
  10        4S         -1.32875   6.38001   0.00000   0.00000   2.38011
  11        4PX         0.00000   0.00000   0.00000  -0.91846   0.00000
  12        4PY         0.00000   0.00000   2.68932   0.00000   0.00000
  13        4PZ         1.08543  -2.68474   0.00000   0.00000  -0.06084
  14        5S          2.29770  -1.12399   0.00000   0.00000  -0.92033
  15        5PX         0.00000   0.00000   0.00000   0.17895   0.00000
  16        5PY         0.00000   0.00000  -0.32036   0.00000   0.00000
  17        5PZ        -0.87331   0.53399   0.00000   0.00000   0.09867
  18        6D 0       -0.00923   0.01204   0.00000   0.00000   0.01720
  19        6D+1        0.00000   0.00000   0.00000   0.02129   0.00000
  20        6D-1        0.00000   0.00000  -0.00904   0.00000   0.00000
  21        6D+2        0.00550   0.00383   0.00000   0.00000  -0.05665
  22        6D-2        0.00000   0.00000   0.00000   0.00000   0.00000
  23        7D 0       -0.84904   0.12310   0.00000   0.00000   0.05711
  24        7D+1        0.00000   0.00000   0.00000  -0.00931   0.00000
  25        7D-1        0.00000   0.00000  -1.70084   0.00000   0.00000
  26        7D+2       -0.40666  -1.41234   0.00000   0.00000  -0.44904
  27        7D-2        0.00000   0.00000   0.00000   0.00000   0.00000
  28 2   H  1S         -0.71253  -0.41051   0.99068   0.00000  -0.24848
  29        2S          2.00126  -3.45844   1.42443   0.00000  -1.19087
  30        3S         -1.93888   0.48904   0.60735   0.00000   0.42084
  31        4S          0.14312   0.04859  -0.46941   0.00000   0.02099
  32        5PX         0.00000   0.00000   0.00000   0.01781   0.00000
  33        5PY        -0.06450   0.05980  -0.02606   0.00000   0.06199
  34        5PZ         0.01667   0.03928  -0.01090   0.00000   0.03083
  35        6PX         0.00000   0.00000   0.00000  -0.11426   0.00000
  36        6PY         0.95178  -1.47017   0.82495   0.00000  -0.70181
  37        6PZ        -0.39105  -0.96033   0.48647   0.00000  -0.33377
  38        7PX         0.00000   0.00000   0.00000   0.16305   0.00000
  39        7PY        -0.20700  -0.34171   0.12444   0.00000  -0.02913
  40        7PZ         0.06956  -0.15314   0.33047   0.00000  -0.12184
  41 3   H  1S         -0.71253  -0.41051  -0.99068   0.00000  -0.24848
  42        2S          2.00126  -3.45844  -1.42443   0.00000  -1.19087
  43        3S         -1.93888   0.48904  -0.60735   0.00000   0.42084
  44        4S          0.14312   0.04859   0.46941   0.00000   0.02099
  45        5PX         0.00000   0.00000   0.00000   0.01781   0.00000
  46        5PY         0.06450  -0.05980  -0.02606   0.00000  -0.06199
  47        5PZ         0.01667   0.03928   0.01090   0.00000   0.03083
  48        6PX         0.00000   0.00000   0.00000  -0.11426   0.00000
  49        6PY        -0.95178   1.47017   0.82495   0.00000   0.70181
  50        6PZ        -0.39105  -0.96033  -0.48647   0.00000  -0.33377
  51        7PX         0.00000   0.00000   0.00000   0.16305   0.00000
  52        7PY         0.20700   0.34171   0.12444   0.00000   0.02913
  53        7PZ         0.06956  -0.15314  -0.33047   0.00000  -0.12184
                          41        42        43        44        45
                        (B2)--V   (A1)--V   (B1)--V   (A2)--V   (A1)--V
     Eigenvalues --     5.80488   6.74032   6.80896   6.84057   6.92861
   1 1   O  1S          0.00000   0.00042   0.00000   0.00000   0.00015
   2        2S          0.00000   0.01298   0.00000   0.00000   0.00231
   3        2PX         0.00000   0.00000   0.03150   0.00000   0.00000
   4        2PY        -1.25106   0.00000   0.00000   0.00000   0.00000
   5        2PZ         0.00000   0.12469   0.00000   0.00000   0.00422
   6        3S          0.00000  -0.33371   0.00000   0.00000  -0.01513
   7        3PX         0.00000   0.00000  -0.05131   0.00000   0.00000
   8        3PY         2.24574   0.00000   0.00000   0.00000   0.00000
   9        3PZ         0.00000  -0.15558   0.00000   0.00000   0.02436
  10        4S          0.00000   1.98343   0.00000   0.00000  -0.27187
  11        4PX         0.00000   0.00000   0.19984   0.00000   0.00000
  12        4PY        -0.06370   0.00000   0.00000   0.00000   0.00000
  13        4PZ         0.00000  -0.62559   0.00000   0.00000   0.33254
  14        5S          0.00000   1.60253   0.00000   0.00000  -0.17428
  15        5PX         0.00000   0.00000   0.08344   0.00000   0.00000
  16        5PY        -0.40557   0.00000   0.00000   0.00000   0.00000
  17        5PZ         0.00000  -0.34835   0.00000   0.00000   0.09298
  18        6D 0        0.00000  -0.25500   0.00000   0.00000   1.12219
  19        6D+1        0.00000   0.00000   1.13839   0.00000   0.00000
  20        6D-1       -0.19309   0.00000   0.00000   0.00000   0.00000
  21        6D+2        0.00000   1.04405   0.00000   0.00000   0.27086
  22        6D-2        0.00000   0.00000   0.00000   1.14504   0.00000
  23        7D 0        0.00000   0.10363   0.00000   0.00000  -0.73449
  24        7D+1        0.00000   0.00000  -0.61387   0.00000   0.00000
  25        7D-1       -0.70325   0.00000   0.00000   0.00000   0.00000
  26        7D+2        0.00000  -0.78853   0.00000   0.00000  -0.19642
  27        7D-2        0.00000   0.00000   0.00000  -0.66555   0.00000
  28 2   H  1S          0.44873  -0.07771   0.00000   0.00000  -0.03169
  29        2S          0.80343  -0.81000   0.00000   0.00000   0.21996
  30        3S         -1.24562  -0.95408   0.00000   0.00000   0.07573
  31        4S          0.18048  -0.05415   0.00000   0.00000   0.00450
  32        5PX         0.00000   0.00000  -0.00491  -0.00072   0.00000
  33        5PY        -0.14761  -0.27677   0.00000   0.00000  -0.01977
  34        5PZ        -0.11819  -0.16875   0.00000   0.00000  -0.06726
  35        6PX         0.00000   0.00000  -0.06402  -0.10090   0.00000
  36        6PY         0.81650   0.10209   0.00000   0.00000   0.18709
  37        6PZ         0.64653   0.02201   0.00000   0.00000  -0.07427
  38        7PX         0.00000   0.00000  -0.13517  -0.09848   0.00000
  39        7PY        -0.33171  -0.43354   0.00000   0.00000   0.06042
  40        7PZ        -0.29563  -0.27296   0.00000   0.00000  -0.08797
  41 3   H  1S         -0.44873  -0.07771   0.00000   0.00000  -0.03169
  42        2S         -0.80343  -0.81000   0.00000   0.00000   0.21996
  43        3S          1.24562  -0.95408   0.00000   0.00000   0.07573
  44        4S         -0.18048  -0.05415   0.00000   0.00000   0.00450
  45        5PX         0.00000   0.00000  -0.00491   0.00072   0.00000
  46        5PY        -0.14761   0.27677   0.00000   0.00000   0.01977
  47        5PZ         0.11819  -0.16875   0.00000   0.00000  -0.06726
  48        6PX         0.00000   0.00000  -0.06402   0.10090   0.00000
  49        6PY         0.81650  -0.10209   0.00000   0.00000  -0.18709
  50        6PZ        -0.64653   0.02201   0.00000   0.00000  -0.07427
  51        7PX         0.00000   0.00000  -0.13517   0.09848   0.00000
  52        7PY        -0.33171   0.43354   0.00000   0.00000  -0.06042
  53        7PZ         0.29563  -0.27296   0.00000   0.00000  -0.08797
                          46        47        48        49        50
                        (B2)--V   (A2)--V   (A1)--V   (B1)--V   (B2)--V
     Eigenvalues --     7.03421   8.15226   8.16584   8.19316   8.30546
   1 1   O  1S          0.00000   0.00000  -0.00073   0.00000   0.00000
   2        2S          0.00000   0.00000  -0.00291   0.00000   0.00000
   3        2PX         0.00000   0.00000   0.00000   0.01465   0.00000
   4        2PY        -0.35703   0.00000   0.00000   0.00000  -0.00361
   5        2PZ         0.00000   0.00000  -0.01421   0.00000   0.00000
   6        3S          0.00000   0.00000   0.08736   0.00000   0.00000
   7        3PX         0.00000   0.00000   0.00000   0.05459   0.00000
   8        3PY         0.59823   0.00000   0.00000   0.00000  -0.07101
   9        3PZ         0.00000   0.00000   0.09149   0.00000   0.00000
  10        4S          0.00000   0.00000  -0.62272   0.00000   0.00000
  11        4PX         0.00000   0.00000   0.00000   0.09123   0.00000
  12        4PY         1.80822   0.00000   0.00000   0.00000  -0.45100
  13        4PZ         0.00000   0.00000   0.35931   0.00000   0.00000
  14        5S          0.00000   0.00000   0.35932   0.00000   0.00000
  15        5PX         0.00000   0.00000   0.00000  -0.22394   0.00000
  16        5PY         0.31442   0.00000   0.00000   0.00000   0.43474
  17        5PZ         0.00000   0.00000  -0.31294   0.00000   0.00000
  18        6D 0        0.00000   0.00000   0.06603   0.00000   0.00000
  19        6D+1        0.00000   0.00000   0.00000  -0.00329   0.00000
  20        6D-1        1.10807   0.00000   0.00000   0.00000  -0.15092
  21        6D+2        0.00000   0.00000   0.00254   0.00000   0.00000
  22        6D-2        0.00000  -0.01400   0.00000   0.00000   0.00000
  23        7D 0        0.00000   0.00000  -0.21786   0.00000   0.00000
  24        7D+1        0.00000   0.00000   0.00000  -0.08714   0.00000
  25        7D-1       -1.39710   0.00000   0.00000   0.00000   0.16855
  26        7D+2        0.00000   0.00000  -0.01611   0.00000   0.00000
  27        7D-2        0.00000  -0.10243   0.00000   0.00000   0.00000
  28 2   H  1S          0.32993   0.00000   0.00309   0.00000  -0.03443
  29        2S          1.52726   0.00000   0.34423   0.00000  -0.35907
  30        3S          1.19875   0.00000  -0.22415   0.00000   0.04609
  31        4S         -0.08468   0.00000   0.00838   0.00000   0.15210
  32        5PX         0.00000   0.90292   0.00000   0.90843   0.00000
  33        5PY         0.21687   0.00000  -0.47700   0.00000  -0.47171
  34        5PZ         0.22993   0.00000   0.77290   0.00000   0.77704
  35        6PX         0.00000  -0.65860   0.00000  -0.69236   0.00000
  36        6PY         0.16840   0.00000   0.45507   0.00000   0.31255
  37        6PZ         0.05560   0.00000  -0.59209   0.00000  -0.61934
  38        7PX         0.00000   0.24689   0.00000   0.26863   0.00000
  39        7PY         0.66373   0.00000  -0.06862   0.00000  -0.35537
  40        7PZ         0.51879   0.00000   0.24316   0.00000   0.21886
  41 3   H  1S         -0.32993   0.00000   0.00309   0.00000   0.03443
  42        2S         -1.52726   0.00000   0.34423   0.00000   0.35907
  43        3S         -1.19875   0.00000  -0.22415   0.00000  -0.04609
  44        4S          0.08468   0.00000   0.00838   0.00000  -0.15210
  45        5PX         0.00000  -0.90292   0.00000   0.90843   0.00000
  46        5PY         0.21687   0.00000   0.47700   0.00000  -0.47171
  47        5PZ        -0.22993   0.00000   0.77290   0.00000  -0.77704
  48        6PX         0.00000   0.65860   0.00000  -0.69236   0.00000
  49        6PY         0.16840   0.00000  -0.45507   0.00000   0.31255
  50        6PZ        -0.05560   0.00000  -0.59209   0.00000   0.61934
  51        7PX         0.00000  -0.24689   0.00000   0.26863   0.00000
  52        7PY         0.66373   0.00000   0.06862   0.00000  -0.35537
  53        7PZ        -0.51879   0.00000   0.24316   0.00000  -0.21886
                          51        52        53
                        (A1)--V   (B2)--V   (A1)--V
     Eigenvalues --     8.55687   8.76684  49.95732
   1 1   O  1S          0.01152   0.00000  -2.24757
   2        2S         -0.00942   0.00000   2.34612
   3        2PX         0.00000   0.00000   0.00000
   4        2PY         0.00000  -0.24245   0.00000
   5        2PZ        -0.07037   0.00000  -0.01272
   6        3S          0.07571   0.00000  -0.35044
   7        3PX         0.00000   0.00000   0.00000
   8        3PY         0.00000   0.15585   0.00000
   9        3PZ        -0.16621   0.00000   0.05611
  10        4S          2.29097   0.00000   0.60555
  11        4PX         0.00000   0.00000   0.00000
  12        4PY         0.00000  -0.56539   0.00000
  13        4PZ        -1.09443   0.00000  -0.10735
  14        5S         -1.02260   0.00000   0.37762
  15        5PX         0.00000   0.00000   0.00000
  16        5PY         0.00000   0.35079   0.00000
  17        5PZ         0.37131   0.00000  -0.09593
  18        6D 0       -0.05458   0.00000  -0.00098
  19        6D+1        0.00000   0.00000   0.00000
  20        6D-1        0.00000  -0.39480   0.00000
  21        6D+2        0.43731   0.00000   0.00780
  22        6D-2        0.00000   0.00000   0.00000
  23        7D 0        0.08284   0.00000   0.00361
  24        7D+1        0.00000   0.00000   0.00000
  25        7D-1        0.00000   0.18894   0.00000
  26        7D+2       -0.49865   0.00000   0.00281
  27        7D-2        0.00000   0.00000   0.00000
  28 2   H  1S         -0.00246   0.08991   0.00616
  29        2S         -1.47068  -0.51128  -0.05925
  30        3S          0.60173   0.60499  -0.34945
  31        4S          0.01835   0.06592   0.02022
  32        5PX         0.00000   0.00000   0.00000
  33        5PY         0.75562   0.77123  -0.00430
  34        5PZ         0.45685   0.41836  -0.00465
  35        6PX         0.00000   0.00000   0.00000
  36        6PY        -0.88775  -0.62296   0.05297
  37        6PZ        -0.53102  -0.32649   0.04138
  38        7PX         0.00000   0.00000   0.00000
  39        7PY        -0.00590   0.28475  -0.13386
  40        7PZ         0.02748   0.05215  -0.09184
  41 3   H  1S         -0.00246  -0.08991   0.00616
  42        2S         -1.47068   0.51128  -0.05925
  43        3S          0.60173  -0.60499  -0.34945
  44        4S          0.01835  -0.06592   0.02022
  45        5PX         0.00000   0.00000   0.00000
  46        5PY        -0.75562   0.77123   0.00430
  47        5PZ         0.45685  -0.41836  -0.00465
  48        6PX         0.00000   0.00000   0.00000
  49        6PY         0.88775  -0.62296  -0.05297
  50        6PZ        -0.53102   0.32649   0.04138
  51        7PX         0.00000   0.00000   0.00000
  52        7PY         0.00590   0.28475   0.13386
  53        7PZ         0.02748  -0.05215  -0.09184
     Beta Molecular Orbital Coefficients:
                           1         2         3         4         5
                        (A1)--O   (A1)--O   (B2)--O   (A1)--O   (B1)--O
     Eigenvalues --   -19.13226  -1.01949  -0.55046  -0.39139  -0.32267
   1 1   O  1S          0.55133  -0.11674   0.00000  -0.04144   0.00000
   2        2S          0.46968  -0.18688   0.00000  -0.06757   0.00000
   3        2PX         0.00000   0.00000   0.00000   0.00000   0.29733
   4        2PY         0.00000   0.00000   0.24232   0.00000   0.00000
   5        2PZ        -0.00123  -0.05062   0.00000   0.26461   0.00000
   6        3S          0.01404   0.53983   0.00000   0.20403   0.00000
   7        3PX         0.00000   0.00000   0.00000   0.00000   0.43429
   8        3PY         0.00000   0.00000   0.34710   0.00000   0.00000
   9        3PZ        -0.00034  -0.07892   0.00000   0.37933   0.00000
  10        4S         -0.01432   0.42890   0.00000   0.32132   0.00000
  11        4PX         0.00000   0.00000   0.00000   0.00000   0.38388
  12        4PY         0.00000   0.00000   0.22899   0.00000   0.00000
  13        4PZ         0.00234  -0.05044   0.00000   0.28420   0.00000
  14        5S         -0.00631   0.03457   0.00000   0.12499   0.00000
  15        5PX         0.00000   0.00000   0.00000   0.00000   0.09221
  16        5PY         0.00000   0.00000   0.01536   0.00000   0.00000
  17        5PZ         0.00172  -0.00599   0.00000   0.03827   0.00000
  18        6D 0        0.00003   0.00074   0.00000  -0.00458   0.00000
  19        6D+1        0.00000   0.00000   0.00000   0.00000  -0.00459
  20        6D-1        0.00000   0.00000  -0.01176   0.00000   0.00000
  21        6D+2       -0.00024  -0.00466   0.00000   0.00284   0.00000
  22        6D-2        0.00000   0.00000   0.00000   0.00000   0.00000
  23        7D 0       -0.00010   0.00372   0.00000  -0.02260   0.00000
  24        7D+1        0.00000   0.00000   0.00000   0.00000  -0.02205
  25        7D-1        0.00000   0.00000  -0.02009   0.00000   0.00000
  26        7D+2        0.00015  -0.00974   0.00000  -0.00603   0.00000
  27        7D-2        0.00000   0.00000   0.00000   0.00000   0.00000
  28 2   H  1S         -0.00011   0.09882  -0.15447  -0.08605   0.00000
  29        2S          0.00200   0.05449  -0.17986  -0.14009   0.00000
  30        3S          0.00645  -0.02821  -0.03979  -0.08381   0.00000
  31        4S         -0.00046   0.00496  -0.01029  -0.00264   0.00000
  32        5PX         0.00000   0.00000   0.00000   0.00000   0.00335
  33        5PY         0.00002   0.00461  -0.00348  -0.00269   0.00000
  34        5PZ         0.00004   0.00277  -0.00387   0.00110   0.00000
  35        6PX         0.00000   0.00000   0.00000   0.00000   0.02333
  36        6PY        -0.00064   0.01397  -0.01052  -0.01863   0.00000
  37        6PZ        -0.00059   0.00834  -0.01778   0.00484   0.00000
  38        7PX         0.00000   0.00000   0.00000   0.00000   0.02584
  39        7PY         0.00264  -0.01235   0.00518  -0.01838   0.00000
  40        7PZ         0.00184  -0.00949   0.00542   0.01461   0.00000
  41 3   H  1S         -0.00011   0.09882   0.15447  -0.08605   0.00000
  42        2S          0.00200   0.05449   0.17986  -0.14009   0.00000
  43        3S          0.00645  -0.02821   0.03979  -0.08381   0.00000
  44        4S         -0.00046   0.00496   0.01029  -0.00264   0.00000
  45        5PX         0.00000   0.00000   0.00000   0.00000   0.00335
  46        5PY        -0.00002  -0.00461  -0.00348   0.00269   0.00000
  47        5PZ         0.00004   0.00277   0.00387   0.00110   0.00000
  48        6PX         0.00000   0.00000   0.00000   0.00000   0.02333
  49        6PY         0.00064  -0.01397  -0.01052   0.01863   0.00000
  50        6PZ        -0.00059   0.00834   0.01778   0.00484   0.00000
  51        7PX         0.00000   0.00000   0.00000   0.00000   0.02584
  52        7PY        -0.00264   0.01235   0.00518   0.01838   0.00000
  53        7PZ         0.00184  -0.00949  -0.00542   0.01461   0.00000
                           6         7         8         9        10
                        (A1)--V   (B2)--V   (A1)--V   (A1)--V   (B1)--V
     Eigenvalues --    -0.02130   0.02921   0.13901   0.15042   0.15133
   1 1   O  1S         -0.03029   0.00000   0.02934  -0.02351   0.00000
   2        2S         -0.05044   0.00000   0.04783  -0.03844   0.00000
   3        2PX         0.00000   0.00000   0.00000   0.00000  -0.13683
   4        2PY         0.00000   0.08380   0.00000   0.00000   0.00000
   5        2PZ        -0.06831   0.00000   0.12140   0.08303   0.00000
   6        3S          0.17155   0.00000  -0.13965   0.13051   0.00000
   7        3PX         0.00000   0.00000   0.00000   0.00000  -0.14871
   8        3PY         0.00000   0.12811   0.00000   0.00000   0.00000
   9        3PZ        -0.10075   0.00000   0.16488   0.08375   0.00000
  10        4S          0.29186   0.00000  -0.50470   0.16689   0.00000
  11        4PX         0.00000   0.00000   0.00000   0.00000  -0.48285
  12        4PY         0.00000   0.03938   0.00000   0.00000   0.00000
  13        4PZ        -0.16094   0.00000   0.27369   0.46286   0.00000
  14        5S          0.84381   0.00000  -1.47576   2.43310   0.00000
  15        5PX         0.00000   0.00000   0.00000   0.00000   1.29067
  16        5PY         0.00000   0.40636   0.00000   0.00000   0.00000
  17        5PZ        -0.11187   0.00000   0.35269  -2.05814   0.00000
  18        6D 0        0.00097   0.00000  -0.00269  -0.00033   0.00000
  19        6D+1        0.00000   0.00000   0.00000   0.00000   0.00227
  20        6D-1        0.00000  -0.00140   0.00000   0.00000   0.00000
  21        6D+2        0.00072   0.00000  -0.00240   0.00193   0.00000
  22        6D-2        0.00000   0.00000   0.00000   0.00000   0.00000
  23        7D 0        0.00693   0.00000  -0.00944  -0.01054   0.00000
  24        7D+1        0.00000   0.00000   0.00000   0.00000   0.00913
  25        7D-1        0.00000   0.00962   0.00000   0.00000   0.00000
  26        7D+2       -0.00042   0.00000  -0.02630   0.03193   0.00000
  27        7D-2        0.00000   0.00000   0.00000   0.00000   0.00000
  28 2   H  1S         -0.01915   0.00067   0.07461  -0.04150   0.00000
  29        2S         -0.10962  -0.00354   0.01042   0.09655   0.00000
  30        3S         -0.37794   0.16023   2.00874  -1.89921   0.00000
  31        4S         -0.58647   2.05679  -0.84087   0.17854   0.00000
  32        5PX         0.00000   0.00000   0.00000   0.00000  -0.00299
  33        5PY         0.00275  -0.00160  -0.00461  -0.00331   0.00000
  34        5PZ         0.00116  -0.00085  -0.00131  -0.00026   0.00000
  35        6PX         0.00000   0.00000   0.00000   0.00000   0.02175
  36        6PY         0.01341  -0.01393  -0.01995   0.03991   0.00000
  37        6PZ         0.00740  -0.01742  -0.00984  -0.00308   0.00000
  38        7PX         0.00000   0.00000   0.00000   0.00000  -0.05951
  39        7PY        -0.00118  -0.09190  -0.06765   0.01473   0.00000
  40        7PZ         0.00687  -0.02842  -0.00949   0.00251   0.00000
  41 3   H  1S         -0.01915  -0.00067   0.07461  -0.04150   0.00000
  42        2S         -0.10962   0.00354   0.01042   0.09655   0.00000
  43        3S         -0.37794  -0.16023   2.00874  -1.89921   0.00000
  44        4S         -0.58647  -2.05679  -0.84087   0.17854   0.00000
  45        5PX         0.00000   0.00000   0.00000   0.00000  -0.00299
  46        5PY        -0.00275  -0.00160   0.00461   0.00331   0.00000
  47        5PZ         0.00116   0.00085  -0.00131  -0.00026   0.00000
  48        6PX         0.00000   0.00000   0.00000   0.00000   0.02175
  49        6PY        -0.01341  -0.01393   0.01995  -0.03991   0.00000
  50        6PZ         0.00740   0.01742  -0.00984  -0.00308   0.00000
  51        7PX         0.00000   0.00000   0.00000   0.00000  -0.05951
  52        7PY         0.00118  -0.09190   0.06765  -0.01473   0.00000
  53        7PZ         0.00687   0.02842  -0.00949   0.00251   0.00000
                          11        12        13        14        15
                        (B2)--V   (A1)--V   (B2)--V   (A1)--V   (A2)--V
     Eigenvalues --     0.15338   0.20568   0.21513   0.34618   0.35046
   1 1   O  1S          0.00000   0.02538   0.00000   0.00446   0.00000
   2        2S          0.00000   0.04316   0.00000   0.00838   0.00000
   3        2PX         0.00000   0.00000   0.00000   0.00000   0.00000
   4        2PY         0.11870   0.00000  -0.12504   0.00000   0.00000
   5        2PZ         0.00000  -0.01160   0.00000  -0.04580   0.00000
   6        3S          0.00000  -0.16945   0.00000  -0.06986   0.00000
   7        3PX         0.00000   0.00000   0.00000   0.00000   0.00000
   8        3PY         0.13673   0.00000  -0.17500   0.00000   0.00000
   9        3PZ         0.00000   0.03046   0.00000  -0.02981   0.00000
  10        4S          0.00000   0.33412   0.00000   0.58871   0.00000
  11        4PX         0.00000   0.00000   0.00000   0.00000   0.00000
  12        4PY         0.47851   0.00000  -0.46130   0.00000   0.00000
  13        4PZ         0.00000  -0.44354   0.00000  -0.71916   0.00000
  14        5S          0.00000  10.63783   0.00000   5.14001   0.00000
  15        5PX         0.00000   0.00000   0.00000   0.00000   0.00000
  16        5PY         2.14616   0.00000   3.01811   0.00000   0.00000
  17        5PZ         0.00000  -2.55111   0.00000  -2.21875   0.00000
  18        6D 0        0.00000  -0.00015   0.00000  -0.01321   0.00000
  19        6D+1        0.00000   0.00000   0.00000   0.00000   0.00000
  20        6D-1        0.00652   0.00000   0.00271   0.00000   0.00000
  21        6D+2        0.00000   0.00821   0.00000  -0.00422   0.00000
  22        6D-2        0.00000   0.00000   0.00000   0.00000  -0.01322
  23        7D 0        0.00000   0.00866   0.00000  -0.01426   0.00000
  24        7D+1        0.00000   0.00000   0.00000   0.00000   0.00000
  25        7D-1        0.03152   0.00000   0.04678   0.00000   0.00000
  26        7D+2        0.00000  -0.00084   0.00000  -0.03372   0.00000
  27        7D-2        0.00000   0.00000   0.00000   0.00000  -0.02401
  28 2   H  1S          0.07504  -0.01227  -0.00524   0.02571   0.00000
  29        2S          0.10767  -0.17675  -0.11739  -0.16517   0.00000
  30        3S          3.93859  -5.26192   1.74787  -3.05716   0.00000
  31        4S         -1.22947  -0.53559   2.03589  -0.00547   0.00000
  32        5PX         0.00000   0.00000   0.00000   0.00000   0.01416
  33        5PY         0.00011  -0.00234   0.00427  -0.00399   0.00000
  34        5PZ        -0.00188  -0.00409   0.00568   0.01204   0.00000
  35        6PX         0.00000   0.00000   0.00000   0.00000  -0.03709
  36        6PY        -0.02793   0.00785  -0.00932  -0.01599   0.00000
  37        6PZ        -0.03043   0.00628  -0.03097  -0.03829   0.00000
  38        7PX         0.00000   0.00000   0.00000   0.00000   0.95852
  39        7PY         0.30946  -0.50131   0.13120  -0.76525   0.00000
  40        7PZ         0.12153  -0.37555   0.18660   0.61968   0.00000
  41 3   H  1S         -0.07504  -0.01227   0.00524   0.02571   0.00000
  42        2S         -0.10767  -0.17675   0.11739  -0.16517   0.00000
  43        3S         -3.93859  -5.26192  -1.74787  -3.05716   0.00000
  44        4S          1.22947  -0.53559  -2.03589  -0.00547   0.00000
  45        5PX         0.00000   0.00000   0.00000   0.00000  -0.01416
  46        5PY         0.00011   0.00234   0.00427   0.00399   0.00000
  47        5PZ         0.00188  -0.00409  -0.00568   0.01204   0.00000
  48        6PX         0.00000   0.00000   0.00000   0.00000   0.03709
  49        6PY        -0.02793  -0.00785  -0.00932   0.01599   0.00000
  50        6PZ         0.03043   0.00628   0.03097  -0.03829   0.00000
  51        7PX         0.00000   0.00000   0.00000   0.00000  -0.95852
  52        7PY         0.30946   0.50131   0.13120   0.76525   0.00000
  53        7PZ        -0.12153  -0.37555  -0.18660   0.61968   0.00000
                          16        17        18        19        20
                        (B1)--V   (B2)--V   (A1)--V   (B2)--V   (A1)--V
     Eigenvalues --     0.40300   0.45006   0.52133   0.54632   0.67306
   1 1   O  1S          0.00000   0.00000   0.01938   0.00000  -0.04884
   2        2S          0.00000   0.00000   0.03741   0.00000  -0.07755
   3        2PX        -0.07941   0.00000   0.00000   0.00000   0.00000
   4        2PY         0.00000  -0.09204   0.00000   0.07983   0.00000
   5        2PZ         0.00000   0.00000   0.10830   0.00000  -0.06032
   6        3S          0.00000   0.00000  -0.22536   0.00000   0.05525
   7        3PX        -0.05682   0.00000   0.00000   0.00000   0.00000
   8        3PY         0.00000  -0.23477   0.00000   0.13033   0.00000
   9        3PZ         0.00000   0.00000   0.20724   0.00000  -0.11552
  10        4S          0.00000   0.00000   1.38764   0.00000   6.24402
  11        4PX        -0.71972   0.00000   0.00000   0.00000   0.00000
  12        4PY         0.00000   0.81803   0.00000   0.56498   0.00000
  13        4PZ         0.00000   0.00000   0.17720   0.00000  -1.91234
  14        5S          0.00000   0.00000   6.89297   0.00000   8.74972
  15        5PX        -1.03990   0.00000   0.00000   0.00000   0.00000
  16        5PY         0.00000   3.18195   0.00000   1.60571   0.00000
  17        5PZ         0.00000   0.00000  -1.78133   0.00000  -1.64369
  18        6D 0        0.00000   0.00000  -0.00037   0.00000  -0.00048
  19        6D+1       -0.01041   0.00000   0.00000   0.00000   0.00000
[...]
                      KCal/Mol        Cal/Mol-Kelvin    Cal/Mol-Kelvin
 Total                   15.132              6.008             45.081
 Electronic               0.000              0.000              0.000
 Translational            0.889              2.981             34.608
 Rotational               0.889              2.981             10.467
 Vibrational             13.355              0.046              0.007
                       Q            Log10(Q)             Ln(Q)
 Total Bot       0.211794D-01         -1.674086         -3.854726
 Total V=0       0.129980D+09          8.113875         18.682889
 Vib (Bot)       0.163004D-09         -9.787800        -22.537243
 Vib (V=0)       0.100037D+01          0.000161          0.000371
 Electronic      0.100000D+01          0.000000          0.000000
 Translational   0.300431D+07          6.477745         14.915559
 Rotational      0.432483D+02          1.635969          3.766959
 
                                         H2O DFT uB3LPY 6-311++g(2d,3p) Opt Freq 
 - Full - NBO
                                                             IR Spectrum
 
     3   3                                                                     1                                                     
     9   8                                                                     6                                                     
     0   0                                                                     3                                                     
     3   1                                                                     7                                                     
 
     X   X                                                                     X                                                     
     X                                                                         X                                                     
     X                                                                         X                                                     
     X                                                                         X                                                     
     X                                                                         X                                                     
     X                                                                         X                                                     
     X                                                                         X                                                     
     X                                                                         X                                                     
     X                                                                         X                                                     
     X                                                                         X                                                     
     X                                                                         X                                                     
     X                                                                         X                                                     
     X                                                                         X                                                     
     X                                                                         X                                                     
     X                                                                         X                                                     
     X                                                                         X                                                     
     X                                                                         X                                                     
     X                                                                         X                                                     
                                                                               X                                                     
                                                                               X                                                     
 
 
                                         H2O DFT uB3LPY 6-311++g(2d,3p) Opt Freq 
 - Full - NBO
                                                            Raman Spectrum
 
     3   3                                                                     1                                                     
     9   8                                                                     6                                                     
     0   0                                                                     3                                                     
     3   1                                                                     7                                                     
 
     X   X                                                                     X                                                     
     X   X                                                                                                                           
     X   X                                                                                                                           
     X   X                                                                                                                           
     X   X                                                                                                                           
     X   X                                                                                                                           
         X                                                                                                                           
         X                                                                                                                           
         X                                                                                                                           
         X                                                                                                                           
         X                                                                                                                           
         X                                                                                                                           
         X                                                                                                                           
         X                                                                                                                           
         X                                                                                                                           
         X                                                                                                                           
         X                                                                                                                           
         X                                                                                                                           
         X                                                                                                                           
         X                                                                                                                           
 
 ***** Axes restored to original set *****
 -------------------------------------------------------------------
 Center     Atomic                   Forces (Hartrees/Bohr)
 Number     Number              X              Y              Z
 -------------------------------------------------------------------
      1        8          -0.000000110   -0.000000156    0.000000000
      2        1           0.000000085    0.000000057    0.000000000
      3        1           0.000000026    0.000000099   -0.000000000
 -------------------------------------------------------------------
 Cartesian Forces:  Max     0.000000156 RMS     0.000000080
 Force constants in Cartesian coordinates: 
                1             2             3             4             5 
      1  0.601385D+00
      2 -0.107958D+00  0.524925D+00
      3  0.000000D+00  0.000000D+00  0.134769D-04
      4 -0.517292D+00  0.739903D-02  0.000000D+00  0.533754D+00
      5 -0.528446D-01 -0.458633D-01  0.000000D+00  0.227158D-02  0.478412D-01
      6  0.000000D+00  0.000000D+00 -0.673845D-05  0.000000D+00  0.000000D+00
      7 -0.840932D-01  0.100559D+00  0.000000D+00 -0.164622D-01  0.505731D-01
      8  0.160803D+00 -0.479062D+00  0.000000D+00 -0.967061D-02 -0.197784D-02
      9  0.000000D+00  0.000000D+00 -0.673845D-05  0.000000D+00  0.000000D+00
                6             7             8             9 
      6  0.673656D-05
      7  0.000000D+00  0.100555D+00
      8  0.000000D+00 -0.151132D+00  0.481039D+00
      9  0.000000D+00  0.000000D+00  0.000000D+00  0.673656D-05
 FormGI is forming the generalized inverse of G from B-inverse, IUseBI=4.
 Force constants in internal coordinates: 
                1             2             3 
      1  0.533190D+00
      2 -0.500909D-02  0.533190D+00
      3  0.303557D-01  0.303557D-01  0.159692D+00
 Leave Link  716 at Fri Sep  6 10:40:27 2024, MaxMem=   104857600 cpu:               0.0 elap:               0.0
 (Enter /Users/asuyarger/Applications/G16/g16/l103.exe)

 GradGradGradGradGradGradGradGradGradGradGradGradGradGradGradGradGradGrad
 Berny optimization.
 Red2BG is reusing G-inverse.
 Internal  Forces:  Max     0.000000098 RMS     0.000000091
 Search for a local minimum.
 Step number   1 out of a maximum of    2
 All quantities printed in internal units (Hartrees-Bohrs-Radians)
 Second derivative matrix not updated -- analytic derivatives used.
 The second derivative matrix:
                          R1        R2        A1
           R1           0.53319
           R2          -0.00501   0.53319
           A1           0.03036   0.03036   0.15969
 ITU=  0
     Eigenvalues ---    0.15476   0.53312   0.53820
 Angle between quadratic step and forces=  90.00 degrees.
 Linear search not attempted -- first point.
 Iteration  1 RMS(Cart)=  0.00000034 RMS(Int)=  0.00000000
 ITry= 1 IFail=0 DXMaxC= 3.38D-07 DCOld= 1.00D+10 DXMaxT= 3.00D-01 DXLimC= 3.00D+00 Rises=F
 ClnCor:  largest displacement from symmetrization is 2.14D-15 for atom     1.
 Variable       Old X    -DE/DX   Delta X   Delta X   Delta X     New X
                                 (Linear)    (Quad)   (Total)
    R1        1.81639   0.00000   0.00000   0.00000   0.00000   1.81639
    R2        1.81639   0.00000   0.00000   0.00000   0.00000   1.81639
    A1        1.83294  -0.00000   0.00000  -0.00000  -0.00000   1.83294
         Item               Value     Threshold  Converged?
 Maximum Force            0.000000     0.000015     YES
 RMS     Force            0.000000     0.000010     YES
 Maximum Displacement     0.000000     0.000060     YES
 RMS     Displacement     0.000000     0.000040     YES
 Predicted change in Energy=-5.132729D-14
 Optimization completed.
    -- Stationary point found.
                           ----------------------------
                           !   Optimized Parameters   !
                           ! (Angstroms and Degrees)  !
 --------------------------                            --------------------------
 ! Name  Definition              Value          Derivative Info.                !
 --------------------------------------------------------------------------------
 ! R1    R(1,2)                  0.9612         -DE/DX =    0.0                 !
 ! R2    R(1,3)                  0.9612         -DE/DX =    0.0                 !
 ! A1    A(2,1,3)              105.02           -DE/DX =    0.0                 !
 --------------------------------------------------------------------------------
 GradGradGradGradGradGradGradGradGradGradGradGradGradGradGradGradGradGrad

 Leave Link  103 at Fri Sep  6 10:40:27 2024, MaxMem=   104857600 cpu:               0.0 elap:               0.0
 (Enter /Users/asuyarger/Applications/G16/g16/l9999.exe)

 ----------------------------------------------------------------------

 Electric dipole moment (input orientation):
 (Debye = 10**-18 statcoulomb cm , SI units = C m)
                  (au)            (Debye)         (10**-30 SI)
   Tot        0.753107D+00      0.191421D+01      0.638511D+01
   x          0.434652D+00      0.110478D+01      0.368513D+01
   y          0.615018D+00      0.156322D+01      0.521434D+01
   z          0.000000D+00      0.000000D+00      0.000000D+00

 Dipole polarizability, Alpha (input orientation).
 (esu units = cm**3 , SI units = C**2 m**2 J**-1)
 Alpha(0;0):
               (au)            (10**-24 esu)      (10**-40 SI)
   iso        0.914237D+01      0.135476D+01      0.150737D+01
   aniso      0.888474D+00      0.131658D+00      0.146490D+00
   xx         0.947679D+01      0.140431D+01      0.156251D+01
   yx        -0.324795D+00     -0.481297D-01     -0.535515D-01
   yy         0.924675D+01      0.137023D+01      0.152458D+01
   zx         0.000000D+00      0.000000D+00      0.000000D+00
   zy         0.000000D+00      0.000000D+00      0.000000D+00
   zz         0.870357D+01      0.128974D+01      0.143503D+01

 First dipole hyperpolarizability, Beta (input orientation).
 ||, _|_  parallel and perpendicular components, (z) with respect to z axis,
 vector components x,y,z.  Values do not include the 1/n! factor of 1/2.
 (esu units = statvolt**-1 cm**4 , SI units = C**3 m**3 J**-2)
 Beta(0;0,0):
               (au)            (10**-30 esu)      (10**-50 SI)
   || (z)     0.000000D+00      0.000000D+00      0.000000D+00
   _|_(z)     0.000000D+00      0.000000D+00      0.000000D+00
   x          0.471434D+02      0.407282D+00      0.151159D+00
   y          0.667064D+02      0.576291D+00      0.213885D+00
   z          0.000000D+00      0.000000D+00      0.000000D+00
   ||         0.163368D+02      0.141137D+00      0.523816D-01
   xxx        0.216700D+02      0.187212D+00      0.694817D-01
   xxy        0.301929D+01      0.260843D-01      0.968095D-02
   yxy       -0.551669D+01     -0.476599D-01     -0.176885D-01
   yyy        0.198370D+02      0.171377D+00      0.636047D-01
   xxz        0.000000D+00      0.000000D+00      0.000000D+00
   yxz        0.000000D+00      0.000000D+00      0.000000D+00
   yyz        0.000000D+00      0.000000D+00      0.000000D+00
   zxz       -0.438792D+00     -0.379082D-02     -0.140693D-02
   zyz       -0.620877D+00     -0.536389D-02     -0.199075D-02
   zzz        0.000000D+00      0.000000D+00      0.000000D+00

 ----------------------------------------------------------------------

 Dipole orientation:
     8         -0.79790090          0.55431528          0.29961462
     1          0.37906648         -0.27748302          1.40510919
     1         -1.97486827          1.38611359          1.40510919

 Electric dipole moment (dipole orientation):
 (Debye = 10**-18 statcoulomb cm , SI units = C m)
                  (au)            (Debye)         (10**-30 SI)
   Tot        0.753107D+00      0.191421D+01      0.638511D+01
   x          0.000000D+00      0.000000D+00      0.000000D+00
   y          0.000000D+00      0.000000D+00      0.000000D+00
   z          0.753107D+00      0.191421D+01      0.638511D+01

 Dipole polarizability, Alpha (dipole orientation).
 (esu units = cm**3 , SI units = C**2 m**2 J**-1)
 Alpha(0;0):
               (au)            (10**-24 esu)      (10**-40 SI)
   iso        0.914237D+01      0.135476D+01      0.150737D+01
   aniso      0.888474D+00      0.131658D+00      0.146490D+00
   xx         0.937231D+01      0.138883D+01      0.154529D+01
   yx        -0.472620D+00     -0.700351D-01     -0.779245D-01
   yy         0.903759D+01      0.133923D+01      0.149010D+01
   zx         0.000000D+00      0.000000D+00      0.000000D+00
   zy         0.000000D+00      0.000000D+00      0.000000D+00
   zz         0.901721D+01      0.133621D+01      0.148674D+01

 First dipole hyperpolarizability, Beta (dipole orientation).
 ||, _|_  parallel and perpendicular components, (z) with respect to z axis,
 vector components x,y,z.  Values do not include the 1/n! factor of 1/2.
 (esu units = statvolt**-1 cm**4 , SI units = C**3 m**3 J**-2)
 Beta(0;0,0):
               (au)            (10**-30 esu)      (10**-50 SI)
   || (z)     0.163368D+02      0.141137D+00      0.523816D-01
   _|_(z)     0.544559D+01      0.470456D-01      0.174605D-01
   x          0.000000D+00      0.000000D+00      0.000000D+00
   y          0.000000D+00      0.000000D+00      0.000000D+00
   z          0.816838D+02      0.705684D+00      0.261908D+00
   ||         0.163368D+02      0.141137D+00      0.523816D-01
   xxx        0.000000D+00      0.000000D+00      0.000000D+00
   xxy        0.000000D+00      0.000000D+00      0.000000D+00
   yxy        0.000000D+00      0.000000D+00      0.000000D+00
   yyy        0.000000D+00      0.000000D+00      0.000000D+00
   xxz        0.110340D+02      0.953248D-01      0.353789D-01
   yxz       -0.833534D+01     -0.720109D-01     -0.267261D-01
   yyz        0.513056D+01      0.443240D-01      0.164504D-01
   zxz        0.000000D+00      0.000000D+00      0.000000D+00
   zyz        0.000000D+00      0.000000D+00      0.000000D+00
   zzz        0.110634D+02      0.955793D-01      0.354733D-01

 ----------------------------------------------------------------------
 1\1\GINC-JEFFSMACSTUDIO\Freq\UB3LYP\6-311++G(2d,3p)\H2O1\ROOT\06-Sep-2
 024\0\\#P Geom=AllCheck Guess=TCheck SCRF=Check GenChk UB3LYP/6-311++G
 (2d,3p) Freq\\H2O DFT uB3LPY 6-311++g(2d,3p) Opt Freq - Full - NBO\\0,
 1\O,-0.3283343511,0.4261916606,0.00414228\H,0.6321213622,0.463760332,0
 .00414228\H,-0.6135272631,1.344097748,0.00414228\\Version=EM64M-G16Rev
 A.03\State=1-A1\HF=-76.4622773\S2=0.\S2-1=0.\S2A=0.\RMSD=9.615e-10\RMS
 F=7.981e-08\ZeroPoint=0.0212797\Thermal=0.024115\Dipole=0.434652,0.615
 0184,0.\DipoleDeriv=-0.451269,0.07593,0.,0.07593,-0.3974925,0.,0.,0.,-
 0.6812438,0.1616906,-0.0608257,0.,-0.0603917,0.2626902,0.,0.,0.,0.3406
 219,0.2895784,-0.0151042,0.,-0.0155383,0.1348024,0.,0.,0.,0.3406219\Po
 lar=9.4767861,-0.3247954,9.2467539,0.,0.,8.7035722\PolarDeriv=-6.14054
 15,-1.2490268,0.1890225,0.,0.,-1.1880861,-1.8882881,0.6408078,-6.53291
 64,0.,0.,-1.6811029,0.,0.,0.,-0.1637981,-0.231769,0.,7.2070887,-0.0700
 993,1.3022237,0.,0.,1.2405113,0.1397131,0.9209419,0.1601606,0.,0.,0.38
 36728,0.,0.,0.,0.3660039,-0.0849009,0.,-1.0665472,1.3191261,-1.4912462
 ,0.,0.,-0.0524252,1.748575,-1.5617496,6.3727558,0.,0.,1.2974301,0.,0.,
 0.,-0.2022057,0.3166699,0.\HyperPolar=21.6699538,3.0192931,-5.5166923,
 19.8370431,0.,0.,0.,-0.4387922,-0.6208765,0.\Quadrupole=0.8310453,0.32
 19711,-1.1530164,-0.7187907,0.,0.\PG=C02V [C2(O1),SGV(H2)]\NImag=0\\0.
 60138481,-0.10795797,0.52492497,0.,0.,0.00001348,-0.51729156,0.0073990
 3,0.,0.53375371,-0.05284463,-0.04586333,0.,0.00227158,0.04784116,0.,0.
 ,-0.00000674,0.,0.,0.00000674,-0.08409325,0.10055893,0.,-0.01646215,0.
 05057305,0.,0.10055540,0.16080260,-0.47906164,0.,-0.00967061,-0.001977
 84,0.,-0.15113199,0.48103948,0.,0.,-0.00000674,0.,0.,0.,0.,0.,0.000006
 74\\0.00000011,0.00000016,0.,-0.00000008,-0.00000006,0.,-0.00000003,-0
 .00000010,0.\\\@


 K N O W I N G  IS A BARRIER WHICH PREVENTS LEARNING

                     -- TEACHING OF THE BENE GESSERIT
 Job cpu time:       0 days  0 hours  0 minutes  7.9 seconds.
 Elapsed time:       0 days  0 hours  0 minutes  7.8 seconds.
 File lengths (MBytes):  RWF=      6 Int=      0 D2E=      0 Chk=      1 Scr=      1
 Normal termination of Gaussian 16 at Fri Sep  6 10:40:27 2024.
