 Entering Gaussian System, Link 0=g16
 Input=/Users/asuyarger/Downloads/H2O_HF_6311pp2d3p_Opt_Freq_Full.gjf
 Output=/Users/asuyarger/Downloads/H2O_HF_6311pp2d3p_Opt_Freq_Full.log
 Initial command:
 /Users/asuyarger/Applications/G16/g16/l1.exe "/Users/asuyarger/Applications/G16/scratch/Gau-88873.inp" -scrdir="/Users/asuyarger/Applications/G16/scratch/"
 Entering Link 1 = /Users/asuyarger/Applications/G16/g16/l1.exe PID=     88874.
  
 Copyright (c) 1988,1990,1992,1993,1995,1998,2003,2009,2016,
            Gaussian, Inc.  All Rights Reserved.
  
 This is part of the Gaussian(R) 16 program.  It is based on
 the Gaussian(R) 09 system (copyright 2009, Gaussian, Inc.),
 the Gaussian(R) 03 system (copyright 2003, Gaussian, Inc.),
 the Gaussian(R) 98 system (copyright 1998, Gaussian, Inc.),
 the Gaussian(R) 94 system (copyright 1995, Gaussian, Inc.),
 the Gaussian 92(TM) system (copyright 1992, Gaussian, Inc.),
 the Gaussian 90(TM) system (copyright 1990, Gaussian, Inc.),
 the Gaussian 88(TM) system (copyright 1988, Gaussian, Inc.),
 the Gaussian 86(TM) system (copyright 1986, Carnegie Mellon
 University), and the Gaussian 82(TM) system (copyright 1983,
 Carnegie Mellon University). Gaussian is a federally registered
 trademark of Gaussian, Inc.
  
 This software contains proprietary and confidential information,
 including trade secrets, belonging to Gaussian, Inc.
  
 This software is provided under written license and may be
 used, copied, transmitted, or stored only in accord with that
 written license.
  
 The following legend is applicable only to US Government
 contracts under FAR:
  
                    RESTRICTED RIGHTS LEGEND
  
 Use, reproduction and disclosure by the US Government is
 subject to restrictions as set forth in subparagraphs (a)
 and (c) of the Commercial Computer Software - Restricted
 Rights clause in FAR 52.227-19.
  
 Gaussian, Inc.
 340 Quinnipiac St., Bldg. 40, Wallingford CT 06492
  
  
 ---------------------------------------------------------------
 Warning -- This program may not be used in any manner that
 competes with the business of Gaussian, Inc. or will provide
 assistance to any competitor of Gaussian, Inc.  The licensee
 of this program is prohibited from giving any competitor of
 Gaussian, Inc. access to this program.  By using this program,
 the user acknowledges that Gaussian, Inc. is engaged in the
 business of creating and licensing software in the field of
 computational chemistry and represents and warrants to the
 licensee that it is not a competitor of Gaussian, Inc. and that
 it will not use this program in any manner prohibited above.
 ---------------------------------------------------------------
  

 Cite this work as:
 Gaussian 16, Revision A.03,
 M. J. Frisch, G. W. Trucks, H. B. Schlegel, G. E. Scuseria, 
 M. A. Robb, J. R. Cheeseman, G. Scalmani, V. Barone, 
 G. A. Petersson, H. Nakatsuji, X. Li, M. Caricato, A. V. Marenich, 
 J. Bloino, B. G. Janesko, R. Gomperts, B. Mennucci, H. P. Hratchian, 
 J. V. Ortiz, A. F. Izmaylov, J. L. Sonnenberg, D. Williams-Young, 
 F. Ding, F. Lipparini, F. Egidi, J. Goings, B. Peng, A. Petrone, 
 T. Henderson, D. Ranasinghe, V. G. Zakrzewski, J. Gao, N. Rega, 
 G. Zheng, W. Liang, M. Hada, M. Ehara, K. Toyota, R. Fukuda, 
 J. Hasegawa, M. Ishida, T. Nakajima, Y. Honda, O. Kitao, H. Nakai, 
 T. Vreven, K. Throssell, J. A. Montgomery, Jr., J. E. Peralta, 
 F. Ogliaro, M. J. Bearpark, J. J. Heyd, E. N. Brothers, K. N. Kudin, 
 V. N. Staroverov, T. A. Keith, R. Kobayashi, J. Normand, 
 K. Raghavachari, A. P. Rendell, J. C. Burant, S. S. Iyengar, 
 J. Tomasi, M. Cossi, J. M. Millam, M. Klene, C. Adamo, R. Cammi, 
 J. W. Ochterski, R. L. Martin, K. Morokuma, O. Farkas, 
 J. B. Foresman, and D. J. Fox, Gaussian, Inc., Wallingford CT, 2016.
 
 ******************************************
 Gaussian 16:  EM64M-G16RevA.03 25-Dec-2016
                 6-Sep-2024 
 ******************************************
 %chk=H2O_HF_6311pp2d3p_Opt_Freq_Full.chk
 ----------------------------------------------------------------------
 #p opt=tight freq=raman hf/6-311++g(2d,3p) guess=save pop=(hirshfeld,f
 ull,nbo) geom=connectivity polar
 ----------------------------------------------------------------------
 1/7=10,18=20,19=15,38=1,57=2/1,3;
 2/9=110,12=2,17=6,18=5,40=1/2;
 3/5=4,6=6,7=1512,11=9,25=1,30=1,71=1/1,2,3;
 4//1;
 5/5=2,38=5,98=1/2;
 6/7=3,28=1,40=1,79=1/1,7;
 7//1,2,3,16;
 1/7=10,18=20,19=15/3(2);
 2/9=110/2;
 99//99;
 2/9=110/2;
 3/5=4,6=6,7=1512,11=9,25=1,30=1,71=1/1,2,3;
 4/5=5,16=3,69=1/1;
 5/5=2,38=5,98=1/2;
 7//1,2,3,16;
 1/7=10,18=20,19=15/3(-5);
 2/9=110/2;
 6/7=3,19=2,28=1,40=1,79=1/1,7;
 99/9=1/99;
 Leave Link    1 at Fri Sep  6 10:38:08 2024, MaxMem=           0 cpu:               0.0 elap:               0.0
 (Enter /Users/asuyarger/Applications/G16/g16/l101.exe)
 --------------------------------------------
 H2O HF 6-311++g(2d,3p) Opt Freq - Full - NBO
 --------------------------------------------
 Symbolic Z-matrix:
 Charge =  0 Multiplicity = 1
 O                    -0.3165    0.44293   0.00414 
 H                     0.6435    0.44317   0.00414 
 H                    -0.63673   1.34795   0.00414 
 
 ITRead=  0  0  0
 MicOpt= -1 -1 -1
 NAtoms=      3 NQM=        3 NQMF=       0 NMMI=      0 NMMIF=      0
                NMic=       0 NMicF=      0.
                    Isotopes and Nuclear Properties:
 (Nuclear quadrupole moments (NQMom) in fm**2, nuclear magnetic moments (NMagM)
  in nuclear magnetons)

  Atom         1           2           3
 IAtWgt=          16           1           1
 AtmWgt=  15.9949146   1.0078250   1.0078250
 NucSpn=           0           1           1
 AtZEff=  -0.0000000  -0.0000000  -0.0000000
 NQMom=    0.0000000   0.0000000   0.0000000
 NMagM=    0.0000000   2.7928460   2.7928460
 AtZNuc=   8.0000000   1.0000000   1.0000000
 Leave Link  101 at Fri Sep  6 10:38:09 2024, MaxMem=   104857600 cpu:               0.1 elap:               0.1
 (Enter /Users/asuyarger/Applications/G16/g16/l103.exe)

 GradGradGradGradGradGradGradGradGradGradGradGradGradGradGradGradGradGrad
 Berny optimization.
 Initialization pass.
                           ----------------------------
                           !    Initial Parameters    !
                           ! (Angstroms and Degrees)  !
 --------------------------                            --------------------------
 ! Name  Definition              Value          Derivative Info.                !
 --------------------------------------------------------------------------------
 ! R1    R(1,2)                  0.96           estimate D2E/DX2                !
 ! R2    R(1,3)                  0.96           estimate D2E/DX2                !
 ! A1    A(2,1,3)              109.4712         estimate D2E/DX2                !
 --------------------------------------------------------------------------------
 Trust Radius=3.00D-01 FncErr=1.00D-07 GrdErr=1.00D-07 EigMax=2.50D+02 EigMin=1.00D-04
 Number of steps in this run=     20 maximum allowed number of steps=    100.
 GradGradGradGradGradGradGradGradGradGradGradGradGradGradGradGradGradGrad

 Leave Link  103 at Fri Sep  6 10:38:09 2024, MaxMem=   104857600 cpu:               0.0 elap:               0.0
 (Enter /Users/asuyarger/Applications/G16/g16/l202.exe)
                          Input orientation:                          
 ---------------------------------------------------------------------
 Center     Atomic      Atomic             Coordinates (Angstroms)
 Number     Number       Type             X           Y           Z
 ---------------------------------------------------------------------
      1          8           0       -0.316504    0.442931    0.004142
      2          1           0        0.643496    0.443172    0.004142
      3          1           0       -0.636732    1.347947    0.004142
 ---------------------------------------------------------------------
                    Distance matrix (angstroms):
                    1          2          3
     1  O    0.000000
     2  H    0.960000   0.000000
     3  H    0.960000   1.567673   0.000000
 Stoichiometry    H2O
 Framework group  C2V[C2(O),SGV(H2)]
 Deg. of freedom     2
 Full point group                 C2V     NOp   4
 Largest Abelian subgroup         C2V     NOp   4
 Largest concise Abelian subgroup C2      NOp   2
                         Standard orientation:                         
 ---------------------------------------------------------------------
 Center     Atomic      Atomic             Coordinates (Angstroms)
 Number     Number       Type             X           Y           Z
 ---------------------------------------------------------------------
      1          8           0        0.000000   -0.000000    0.110851
      2          1           0       -0.000000   -0.783837   -0.443405
      3          1           0        0.000000    0.783837   -0.443405
 ---------------------------------------------------------------------
 Rotational constants (GHZ):         919.0226998         408.0852142         282.5991552
 Leave Link  202 at Fri Sep  6 10:38:09 2024, MaxMem=   104857600 cpu:               0.0 elap:               0.0
 (Enter /Users/asuyarger/Applications/G16/g16/l301.exe)
 Standard basis: 6-311++G(2d,3p) (5D, 7F)
 Ernie: Thresh=  0.10000D-02 Tol=  0.10000D-05 Strict=F.
 There are    25 symmetry adapted cartesian basis functions of A1  symmetry.
 There are     5 symmetry adapted cartesian basis functions of A2  symmetry.
 There are     9 symmetry adapted cartesian basis functions of B1  symmetry.
 There are    16 symmetry adapted cartesian basis functions of B2  symmetry.
 There are    23 symmetry adapted basis functions of A1  symmetry.
 There are     5 symmetry adapted basis functions of A2  symmetry.
 There are     9 symmetry adapted basis functions of B1  symmetry.
 There are    16 symmetry adapted basis functions of B2  symmetry.
    53 basis functions,    72 primitive gaussians,    55 cartesian basis functions
     5 alpha electrons        5 beta electrons
       nuclear repulsion energy         9.1571759434 Hartrees.
 IExCor=    0 DFT=F Ex=HF Corr=None ExCW=0 ScaHFX=  1.000000
 ScaDFX=  1.000000  1.000000  1.000000  1.000000 ScalE2=  1.000000  1.000000
 IRadAn=      5 IRanWt=     -1 IRanGd=            0 ICorTp=0 IEmpDi=  4
 NAtoms=    3 NActive=    3 NUniq=    2 SFac= 2.25D+00 NAtFMM=   60 NAOKFM=F Big=F
 Integral buffers will be    131072 words long.
 Raffenetti 1 integral format.
 Two-electron integral symmetry is turned on.
 Leave Link  301 at Fri Sep  6 10:38:09 2024, MaxMem=   104857600 cpu:               0.0 elap:               0.0
 (Enter /Users/asuyarger/Applications/G16/g16/l302.exe)
 NPDir=0 NMtPBC=     1 NCelOv=     1 NCel=       1 NClECP=     1 NCelD=      1
         NCelK=      1 NCelE2=     1 NClLst=     1 CellRange=     0.0.
 One-electron integrals computed using PRISM.
 One-electron integral symmetry used in STVInt
 NBasis=    53 RedAO= T EigKep=  1.58D-03  NBF=    23     5     9    16
 NBsUse=    53 1.00D-06 EigRej= -1.00D+00 NBFU=    23     5     9    16
 Leave Link  302 at Fri Sep  6 10:38:09 2024, MaxMem=   104857600 cpu:               0.0 elap:               0.1
 (Enter /Users/asuyarger/Applications/G16/g16/l303.exe)
 DipDrv:  MaxL=1.
 Leave Link  303 at Fri Sep  6 10:38:09 2024, MaxMem=   104857600 cpu:               0.0 elap:               0.0
 (Enter /Users/asuyarger/Applications/G16/g16/l401.exe)
 ExpMin= 3.60D-02 ExpMax= 8.59D+03 ExpMxC= 1.30D+03 IAcc=3 IRadAn=         5 AccDes= 0.00D+00
 Harris functional with IExCor=  205 and IRadAn=       5 diagonalized for initial guess.
 HarFok:  IExCor=  205 AccDes= 0.00D+00 IRadAn=         5 IDoV= 1 UseB2=F ITyADJ=14
 ICtDFT=  3500011 ScaDFX=  1.000000  1.000000  1.000000  1.000000
 FoFCou: FMM=F IPFlag=           0 FMFlag=      100000 FMFlg1=           0
         NFxFlg=           0 DoJE=T BraDBF=F KetDBF=T FulRan=T
         wScrn=  0.000000 ICntrl=       500 IOpCl=  0 I1Cent=   200000004 NGrid=           0
         NMat0=    1 NMatS0=      1 NMatT0=    0 NMatD0=    1 NMtDS0=    0 NMtDT0=    0
 Petite list used in FoFCou.
 Harris En= -76.1478418538258    
 JPrj=0 DoOrth=F DoCkMO=F.
 Initial guess orbital symmetries:
       Occupied  (A1) (A1) (B2) (A1) (B1)
       Virtual   (A1) (B2) (A1) (B1) (B2) (A1) (A1) (B2) (A1) (A2)
                 (B1) (B2) (A1) (B2) (A1) (B2) (A1) (B1) (B2) (A1)
                 (A2) (A1) (B1) (B2) (A1) (B2) (B1) (A2) (A1) (B2)
                 (A1) (A1) (B2) (B1) (A1) (B2) (A1) (B1) (A2) (A1)
                 (B2) (A2) (A1) (B1) (B2) (A1) (B2) (A1)
 The electronic state of the initial guess is 1-A1.
 Leave Link  401 at Fri Sep  6 10:38:09 2024, MaxMem=   104857600 cpu:               0.1 elap:               0.1
 (Enter /Users/asuyarger/Applications/G16/g16/l502.exe)
 Keep R1 ints in memory in symmetry-blocked form, NReq=1865106.
 FoFCou: FMM=F IPFlag=           0 FMFlag=           0 FMFlg1=           0
         NFxFlg=           0 DoJE=F BraDBF=F KetDBF=F FulRan=T
         wScrn=  0.000000 ICntrl=       600 IOpCl=  0 I1Cent=           0 NGrid=           0
         NMat0=    1 NMatS0=   1431 NMatT0=    0 NMatD0=    1 NMtDS0=    0 NMtDT0=    0
 Petite list used in FoFCou.
 Closed shell SCF:
 Using DIIS extrapolation, IDIIS=  1040.
 NGot=   104857600 LenX=   104573746 LenY=   104570280
 Requested convergence on RMS density matrix=1.00D-08 within 128 cycles.
 Requested convergence on MAX density matrix=1.00D-06.
 Requested convergence on             energy=1.00D-06.
 No special actions if energy rises.

 Cycle   1  Pass 1  IDiag  1:
 E= -75.9666749532283    
 DIIS: error= 6.90D-02 at cycle   1 NSaved=   1.
 NSaved= 1 IEnMin= 1 EnMin= -75.9666749532283     IErMin= 1 ErrMin= 6.90D-02
 ErrMax= 6.90D-02  0.00D+00 EMaxC= 1.00D-01 BMatC= 2.05D-01 BMatP= 2.05D-01
 IDIUse=3 WtCom= 3.10D-01 WtEn= 6.90D-01
 Coeff-Com:  0.100D+01
 Coeff-En:   0.100D+01
 Coeff:      0.100D+01
 Gap=     0.453 Goal=   None    Shift=    0.000
 GapD=    0.453 DampG=2.000 DampE=0.500 DampFc=1.0000 IDamp=-1.
 RMSDP=4.98D-03 MaxDP=8.08D-02              OVMax= 1.23D-01

 Cycle   2  Pass 1  IDiag  1:
 E= -76.0182708240562     Delta-E=       -0.051595870828 Rises=F Damp=F
 DIIS: error= 5.08D-02 at cycle   2 NSaved=   2.
 NSaved= 2 IEnMin= 2 EnMin= -76.0182708240562     IErMin= 2 ErrMin= 5.08D-02
 ErrMax= 5.08D-02  0.00D+00 EMaxC= 1.00D-01 BMatC= 5.82D-02 BMatP= 2.05D-01
 IDIUse=3 WtCom= 4.92D-01 WtEn= 5.08D-01
 Coeff-Com:  0.323D+00 0.677D+00
 Coeff-En:   0.211D+00 0.789D+00
 Coeff:      0.266D+00 0.734D+00
 Gap=     0.582 Goal=   None    Shift=    0.000
 RMSDP=2.69D-03 MaxDP=5.80D-02 DE=-5.16D-02 OVMax= 6.59D-02

 Cycle   3  Pass 1  IDiag  1:
 E= -76.0535954189817     Delta-E=       -0.035324594925 Rises=F Damp=F
 DIIS: error= 1.02D-02 at cycle   3 NSaved=   3.
 NSaved= 3 IEnMin= 3 EnMin= -76.0535954189817     IErMin= 3 ErrMin= 1.02D-02
 ErrMax= 1.02D-02  0.00D+00 EMaxC= 1.00D-01 BMatC= 3.22D-03 BMatP= 5.82D-02
 IDIUse=3 WtCom= 8.98D-01 WtEn= 1.02D-01
 Coeff-Com: -0.263D-01 0.163D+00 0.864D+00
 Coeff-En:   0.000D+00 0.000D+00 0.100D+01
 Coeff:     -0.236D-01 0.146D+00 0.878D+00
 Gap=     0.549 Goal=   None    Shift=    0.000
 RMSDP=5.38D-04 MaxDP=1.02D-02 DE=-3.53D-02 OVMax= 1.33D-02

 Cycle   4  Pass 1  IDiag  1:
 E= -76.0556189058015     Delta-E=       -0.002023486820 Rises=F Damp=F
 DIIS: error= 1.13D-03 at cycle   4 NSaved=   4.
 NSaved= 4 IEnMin= 4 EnMin= -76.0556189058015     IErMin= 4 ErrMin= 1.13D-03
 ErrMax= 1.13D-03  0.00D+00 EMaxC= 1.00D-01 BMatC= 1.84D-05 BMatP= 3.22D-03
 IDIUse=3 WtCom= 9.89D-01 WtEn= 1.13D-02
 Coeff-Com:  0.468D-02-0.561D-01-0.200D+00 0.125D+01
 Coeff-En:   0.000D+00 0.000D+00 0.000D+00 0.100D+01
 Coeff:      0.463D-02-0.555D-01-0.198D+00 0.125D+01
 Gap=     0.552 Goal=   None    Shift=    0.000
 RMSDP=8.36D-05 MaxDP=1.50D-03 DE=-2.02D-03 OVMax= 2.24D-03

 Cycle   5  Pass 1  IDiag  1:
 E= -76.0556445117433     Delta-E=       -0.000025605942 Rises=F Damp=F
 DIIS: error= 2.59D-04 at cycle   5 NSaved=   5.
 NSaved= 5 IEnMin= 5 EnMin= -76.0556445117433     IErMin= 5 ErrMin= 2.59D-04
 ErrMax= 2.59D-04  0.00D+00 EMaxC= 1.00D-01 BMatC= 6.76D-07 BMatP= 1.84D-05
 IDIUse=3 WtCom= 9.97D-01 WtEn= 2.59D-03
 Coeff-Com:  0.437D-03 0.172D-02-0.197D-02-0.273D+00 0.127D+01
 Coeff-En:   0.000D+00 0.000D+00 0.000D+00 0.000D+00 0.100D+01
 Coeff:      0.436D-03 0.171D-02-0.197D-02-0.273D+00 0.127D+01
 Gap=     0.552 Goal=   None    Shift=    0.000
 RMSDP=2.76D-05 MaxDP=3.41D-04 DE=-2.56D-05 OVMax= 7.63D-04

 Cycle   6  Pass 1  IDiag  1:
 E= -76.0556462608809     Delta-E=       -0.000001749138 Rises=F Damp=F
 DIIS: error= 4.31D-05 at cycle   6 NSaved=   6.
 NSaved= 6 IEnMin= 6 EnMin= -76.0556462608809     IErMin= 6 ErrMin= 4.31D-05
 ErrMax= 4.31D-05  0.00D+00 EMaxC= 1.00D-01 BMatC= 1.98D-08 BMatP= 6.76D-07
 IDIUse=1 WtCom= 1.00D+00 WtEn= 0.00D+00
 Coeff-Com: -0.234D-03 0.132D-02 0.585D-02 0.204D-01-0.320D+00 0.129D+01
 Coeff:     -0.234D-03 0.132D-02 0.585D-02 0.204D-01-0.320D+00 0.129D+01
 Gap=     0.552 Goal=   None    Shift=    0.000
 RMSDP=5.75D-06 MaxDP=1.01D-04 DE=-1.75D-06 OVMax= 1.63D-04

 Cycle   7  Pass 1  IDiag  1:
 E= -76.0556463236339     Delta-E=       -0.000000062753 Rises=F Damp=F
 DIIS: error= 7.30D-06 at cycle   7 NSaved=   7.
 NSaved= 7 IEnMin= 7 EnMin= -76.0556463236339     IErMin= 7 ErrMin= 7.30D-06
 ErrMax= 7.30D-06  0.00D+00 EMaxC= 1.00D-01 BMatC= 9.00D-10 BMatP= 1.98D-08
 IDIUse=1 WtCom= 1.00D+00 WtEn= 0.00D+00
 Coeff-Com:  0.256D-04-0.389D-03-0.127D-02 0.134D-01-0.964D-02-0.214D+00
 Coeff-Com:  0.121D+01
 Coeff:      0.256D-04-0.389D-03-0.127D-02 0.134D-01-0.964D-02-0.214D+00
 Coeff:      0.121D+01
 Gap=     0.552 Goal=   None    Shift=    0.000
 RMSDP=7.34D-07 MaxDP=8.58D-06 DE=-6.28D-08 OVMax= 2.86D-05

 Cycle   8  Pass 1  IDiag  1:
 E= -76.0556463257459     Delta-E=       -0.000000002112 Rises=F Damp=F
 DIIS: error= 1.57D-06 at cycle   8 NSaved=   8.
 NSaved= 8 IEnMin= 8 EnMin= -76.0556463257459     IErMin= 8 ErrMin= 1.57D-06
 ErrMax= 1.57D-06  0.00D+00 EMaxC= 1.00D-01 BMatC= 4.81D-11 BMatP= 9.00D-10
 IDIUse=1 WtCom= 1.00D+00 WtEn= 0.00D+00
 Coeff-Com:  0.668D-05 0.218D-04 0.174D-04-0.462D-02 0.186D-01-0.949D-02
 Coeff-Com: -0.332D+00 0.133D+01
 Coeff:      0.668D-05 0.218D-04 0.174D-04-0.462D-02 0.186D-01-0.949D-02
 Coeff:     -0.332D+00 0.133D+01
 Gap=     0.552 Goal=   None    Shift=    0.000
 RMSDP=2.22D-07 MaxDP=3.17D-06 DE=-2.11D-09 OVMax= 6.78D-06

 Cycle   9  Pass 1  IDiag  1:
 E= -76.0556463258694     Delta-E=       -0.000000000123 Rises=F Damp=F
 DIIS: error= 2.04D-07 at cycle   9 NSaved=   9.
 NSaved= 9 IEnMin= 9 EnMin= -76.0556463258694     IErMin= 9 ErrMin= 2.04D-07
 ErrMax= 2.04D-07  0.00D+00 EMaxC= 1.00D-01 BMatC= 7.79D-13 BMatP= 4.81D-11
 IDIUse=1 WtCom= 1.00D+00 WtEn= 0.00D+00
 Coeff-Com: -0.153D-05 0.321D-05 0.139D-04 0.521D-03-0.254D-02 0.461D-02
 Coeff-Com:  0.380D-01-0.263D+00 0.122D+01
 Coeff:     -0.153D-05 0.321D-05 0.139D-04 0.521D-03-0.254D-02 0.461D-02
 Coeff:      0.380D-01-0.263D+00 0.122D+01
 Gap=     0.552 Goal=   None    Shift=    0.000
 RMSDP=2.28D-08 MaxDP=2.62D-07 DE=-1.23D-10 OVMax= 8.16D-07

 Cycle  10  Pass 1  IDiag  1:
 E= -76.0556463258712     Delta-E=       -0.000000000002 Rises=F Damp=F
 DIIS: error= 3.98D-08 at cycle  10 NSaved=  10.
 NSaved=10 IEnMin=10 EnMin= -76.0556463258712     IErMin=10 ErrMin= 3.98D-08
 ErrMax= 3.98D-08  0.00D+00 EMaxC= 1.00D-01 BMatC= 2.89D-14 BMatP= 7.79D-13
 IDIUse=1 WtCom= 1.00D+00 WtEn= 0.00D+00
 Coeff-Com:  0.358D-06-0.135D-05-0.367D-05-0.883D-04 0.511D-03-0.167D-02
 Coeff-Com: -0.345D-02 0.552D-01-0.429D+00 0.138D+01
 Coeff:      0.358D-06-0.135D-05-0.367D-05-0.883D-04 0.511D-03-0.167D-02
 Coeff:     -0.345D-02 0.552D-01-0.429D+00 0.138D+01
 Gap=     0.552 Goal=   None    Shift=    0.000
 RMSDP=7.68D-09 MaxDP=1.44D-07 DE=-1.85D-12 OVMax= 1.61D-07

 SCF Done:  E(RHF) =  -76.0556463259     A.U. after   10 cycles
            NFock= 10  Conv=0.77D-08     -V/T= 2.0013
 KE= 7.595789848413D+01 PE=-1.989299019323D+02 EE= 3.775918117892D+01
 Leave Link  502 at Fri Sep  6 10:38:09 2024, MaxMem=   104857600 cpu:               0.2 elap:               0.2
 (Enter /Users/asuyarger/Applications/G16/g16/l601.exe)
 Copying SCF densities to generalized density rwf, IOpCl= 0 IROHF=0.

 **********************************************************************

            Population analysis using the SCF density.

 **********************************************************************

 Orbital symmetries:
       Occupied  (A1) (A1) (B2) (A1) (B1)
       Virtual   (A1) (B2) (A1) (B1) (A1) (B2) (A1) (B2) (A1) (A2)
                 (B1) (B2) (B2) (A1) (A1) (B2) (A1) (B2) (B1) (A1)
                 (A2) (A1) (B1) (B2) (B2) (A1) (B1) (A2) (A1) (B2)
                 (A1) (A1) (B2) (B1) (A1) (B2) (A1) (B1) (A2) (A1)
                 (B2) (A2) (A1) (B1) (B2) (A1) (B2) (A1)
 The electronic state is 1-A1.
 Alpha  occ. eigenvalues --  -20.56561  -1.34971  -0.72755  -0.57568  -0.50827
 Alpha virt. eigenvalues --    0.04414   0.07157   0.23812   0.24315   0.24739
 Alpha virt. eigenvalues --    0.25156   0.29528   0.31345   0.47717   0.48336
 Alpha virt. eigenvalues --    0.53397   0.58816   0.67327   0.68207   0.82927
 Alpha virt. eigenvalues --    0.91721   1.22963   1.25897   1.27741   1.65530
 Alpha virt. eigenvalues --    1.71613   1.75085   1.80796   2.13243   2.28296
 Alpha virt. eigenvalues --    2.28858   2.32322   2.38201   2.62527   2.75842
 Alpha virt. eigenvalues --    2.82541   3.18032   3.40894   5.54257   5.90276
 Alpha virt. eigenvalues --    6.36809   7.26570   7.36513   7.39607   7.48086
 Alpha virt. eigenvalues --    7.56168   8.58377   8.59571   8.62407   8.73630
 Alpha virt. eigenvalues --    9.02935   9.25465  51.66992
     Molecular Orbital Coefficients:
                           1         2         3         4         5
                        (A1)--O   (A1)--O   (B2)--O   (A1)--O   (B1)--O
     Eigenvalues --   -20.56561  -1.34971  -0.72755  -0.57568  -0.50827
   1 1   O  1S          0.55147  -0.11409   0.00000  -0.03546   0.00000
   2        2S          0.47166  -0.19061   0.00000  -0.06037   0.00000
   3        2PX         0.00000   0.00000   0.00000   0.00000   0.28651
   4        2PY         0.00000   0.00000   0.22797   0.00000   0.00000
   5        2PZ        -0.00167  -0.03379   0.00000   0.25520   0.00000
   6        3S          0.00574   0.53839   0.00000   0.18468   0.00000
   7        3PX         0.00000   0.00000   0.00000   0.00000   0.44582
   8        3PY         0.00000   0.00000   0.35211   0.00000   0.00000
   9        3PZ         0.00070  -0.05896   0.00000   0.39176   0.00000
  10        4S         -0.00230   0.46364   0.00000   0.31552   0.00000
  11        4PX         0.00000   0.00000   0.00000   0.00000   0.40512
  12        4PY         0.00000   0.00000   0.23766   0.00000   0.00000
  13        4PZ         0.00029  -0.04447   0.00000   0.30183   0.00000
  14        5S         -0.00028   0.05129   0.00000   0.11464   0.00000
  15        5PX         0.00000   0.00000   0.00000   0.00000   0.06542
  16        5PY         0.00000   0.00000   0.00698   0.00000   0.00000
  17        5PZ         0.00014  -0.01142   0.00000   0.02138   0.00000
  18        6D 0        0.00001   0.00041   0.00000  -0.00433   0.00000
  19        6D+1        0.00000   0.00000   0.00000   0.00000  -0.00438
  20        6D-1        0.00000   0.00000  -0.01323   0.00000   0.00000
  21        6D+2       -0.00002  -0.00426   0.00000   0.00407   0.00000
  22        6D-2        0.00000   0.00000   0.00000   0.00000   0.00000
  23        7D 0       -0.00003   0.00271   0.00000  -0.02268   0.00000
  24        7D+1        0.00000   0.00000   0.00000   0.00000  -0.02184
  25        7D-1        0.00000   0.00000  -0.02529   0.00000   0.00000
  26        7D+2        0.00029  -0.00851   0.00000  -0.00244   0.00000
  27        7D-2        0.00000   0.00000   0.00000   0.00000   0.00000
  28 2   H  1S          0.00020   0.09245  -0.14736  -0.08580   0.00000
  29        2S          0.00073   0.05093  -0.18848  -0.14656   0.00000
  30        3S          0.00051  -0.04747  -0.03829  -0.07968   0.00000
  31        4S         -0.00005   0.00640  -0.01170  -0.00155   0.00000
  32        5PX         0.00000   0.00000   0.00000   0.00000   0.00312
  33        5PY         0.00005   0.00454  -0.00353  -0.00284   0.00000
  34        5PZ         0.00004   0.00281  -0.00382   0.00079   0.00000
  35        6PX         0.00000   0.00000   0.00000   0.00000   0.02259
  36        6PY         0.00014   0.01529  -0.01448  -0.02152   0.00000
  37        6PZ         0.00005   0.01002  -0.02028   0.00168   0.00000
  38        7PX         0.00000   0.00000   0.00000   0.00000   0.01944
  39        7PY         0.00032  -0.01664  -0.00147  -0.02070   0.00000
  40        7PZ         0.00025  -0.01264   0.00302   0.00723   0.00000
  41 3   H  1S          0.00020   0.09245   0.14736  -0.08580   0.00000
  42        2S          0.00073   0.05093   0.18848  -0.14656   0.00000
  43        3S          0.00051  -0.04747   0.03829  -0.07968   0.00000
  44        4S         -0.00005   0.00640   0.01170  -0.00155   0.00000
  45        5PX         0.00000   0.00000   0.00000   0.00000   0.00312
  46        5PY        -0.00005  -0.00454  -0.00353   0.00284   0.00000
  47        5PZ         0.00004   0.00281   0.00382   0.00079   0.00000
  48        6PX         0.00000   0.00000   0.00000   0.00000   0.02259
  49        6PY        -0.00014  -0.01529  -0.01448   0.02152   0.00000
  50        6PZ         0.00005   0.01002   0.02028   0.00168   0.00000
  51        7PX         0.00000   0.00000   0.00000   0.00000   0.01944
  52        7PY        -0.00032   0.01664  -0.00147   0.02070   0.00000
  53        7PZ         0.00025  -0.01264  -0.00302   0.00723   0.00000
                           6         7         8         9        10
                        (A1)--V   (B2)--V   (A1)--V   (B1)--V   (A1)--V
     Eigenvalues --     0.04414   0.07157   0.23812   0.24315   0.24739
   1 1   O  1S         -0.01689   0.00000  -0.01631   0.00000   0.02794
   2        2S         -0.02957   0.00000  -0.02727   0.00000   0.04671
   3        2PX         0.00000   0.00000   0.00000  -0.10982   0.00000
   4        2PY         0.00000   0.03770   0.00000   0.00000   0.00000
   5        2PZ        -0.03370   0.00000   0.06743   0.00000   0.10113
   6        3S          0.09949   0.00000   0.09056   0.00000  -0.11626
   7        3PX         0.00000   0.00000   0.00000  -0.09833   0.00000
   8        3PY         0.00000   0.07194   0.00000   0.00000   0.00000
   9        3PZ        -0.04968   0.00000   0.05895   0.00000   0.12869
  10        4S          0.17294   0.00000   0.07647   0.00000  -0.51920
  11        4PX         0.00000   0.00000   0.00000  -0.50924   0.00000
  12        4PY         0.00000  -0.09006   0.00000   0.00000   0.00000
  13        4PZ        -0.14260   0.00000   0.50243   0.00000   0.27043
  14        5S          1.30092   0.00000   3.80880   0.00000  -2.61744
  15        5PX         0.00000   0.00000   0.00000   1.38364   0.00000
  16        5PY         0.00000   0.41991   0.00000   0.00000   0.00000
  17        5PZ        -0.15180   0.00000  -2.49711   0.00000   0.66708
  18        6D 0        0.00020   0.00000  -0.00116   0.00000  -0.00229
  19        6D+1        0.00000   0.00000   0.00000   0.00265   0.00000
  20        6D-1        0.00000  -0.00186   0.00000   0.00000   0.00000
  21        6D+2        0.00086   0.00000   0.00178   0.00000  -0.00131
  22        6D-2        0.00000   0.00000   0.00000   0.00000   0.00000
  23        7D 0        0.00504   0.00000  -0.00878   0.00000  -0.00729
  24        7D+1        0.00000   0.00000   0.00000   0.00596   0.00000
  25        7D-1        0.00000   0.00939   0.00000   0.00000   0.00000
  26        7D+2       -0.00806   0.00000   0.03585   0.00000  -0.02713
  27        7D-2        0.00000   0.00000   0.00000   0.00000   0.00000
  28 2   H  1S          0.00189  -0.01204  -0.03247   0.00000   0.06155
  29        2S         -0.11265  -0.02622   0.17562   0.00000  -0.17246
  30        3S         -0.25697  -0.28330  -2.59810   0.00000   2.75209
  31        4S         -0.83177   2.49507   0.08999   0.00000  -0.70711
  32        5PX         0.00000   0.00000   0.00000  -0.00418   0.00000
  33        5PY         0.00122  -0.00083  -0.00530   0.00000  -0.00431
  34        5PZ         0.00025   0.00029   0.00003   0.00000  -0.00124
  35        6PX         0.00000   0.00000   0.00000   0.02784   0.00000
  36        6PY         0.00666  -0.00891   0.05123   0.00000  -0.01926
  37        6PZ         0.00553  -0.01483  -0.00047   0.00000  -0.01084
  38        7PX         0.00000   0.00000   0.00000  -0.12576   0.00000
  39        7PY        -0.05848  -0.10726  -0.06360   0.00000  -0.04917
  40        7PZ        -0.03224  -0.02507   0.03069   0.00000   0.00628
  41 3   H  1S          0.00189   0.01204  -0.03247   0.00000   0.06155
  42        2S         -0.11265   0.02622   0.17562   0.00000  -0.17246
  43        3S         -0.25697   0.28330  -2.59810   0.00000   2.75209
  44        4S         -0.83177  -2.49507   0.08999   0.00000  -0.70711
  45        5PX         0.00000   0.00000   0.00000  -0.00418   0.00000
  46        5PY        -0.00122  -0.00083   0.00530   0.00000   0.00431
  47        5PZ         0.00025  -0.00029   0.00003   0.00000  -0.00124
  48        6PX         0.00000   0.00000   0.00000   0.02784   0.00000
  49        6PY        -0.00666  -0.00891  -0.05123   0.00000   0.01926
  50        6PZ         0.00553   0.01483  -0.00047   0.00000  -0.01084
  51        7PX         0.00000   0.00000   0.00000  -0.12576   0.00000
  52        7PY         0.05848  -0.10726   0.06360   0.00000   0.04917
  53        7PZ        -0.03224   0.02507   0.03069   0.00000   0.00628
                          11        12        13        14        15
                        (B2)--V   (A1)--V   (B2)--V   (A1)--V   (A2)--V
     Eigenvalues --     0.25156   0.29528   0.31345   0.47717   0.48336
   1 1   O  1S          0.00000   0.02634   0.00000   0.00402   0.00000
   2        2S          0.00000   0.04619   0.00000   0.00789   0.00000
   3        2PX         0.00000   0.00000   0.00000   0.00000   0.00000
   4        2PY         0.06052   0.00000  -0.12524   0.00000   0.00000
   5        2PZ         0.00000  -0.01061   0.00000  -0.04388   0.00000
   6        3S          0.00000  -0.16403   0.00000  -0.06579   0.00000
   7        3PX         0.00000   0.00000   0.00000   0.00000   0.00000
   8        3PY         0.04743   0.00000  -0.15378   0.00000   0.00000
   9        3PZ         0.00000   0.04411   0.00000  -0.02504   0.00000
  10        4S          0.00000   0.44546   0.00000   0.53723   0.00000
  11        4PX         0.00000   0.00000   0.00000   0.00000   0.00000
  12        4PY         0.32733   0.00000  -0.70107   0.00000   0.00000
  13        4PZ         0.00000  -0.52923   0.00000  -0.74065   0.00000
  14        5S          0.00000  10.99735   0.00000   4.35477   0.00000
  15        5PX         0.00000   0.00000   0.00000   0.00000   0.00000
  16        5PY         3.41829   0.00000   2.11950   0.00000   0.00000
  17        5PZ         0.00000  -2.53398   0.00000  -1.92070   0.00000
  18        6D 0        0.00000  -0.00124   0.00000  -0.01430   0.00000
  19        6D+1        0.00000   0.00000   0.00000   0.00000   0.00000
  20        6D-1        0.00518   0.00000   0.00097   0.00000   0.00000
  21        6D+2        0.00000   0.00842   0.00000  -0.00463   0.00000
  22        6D-2        0.00000   0.00000   0.00000   0.00000  -0.01429
  23        7D 0        0.00000   0.01030   0.00000   0.00112   0.00000
  24        7D+1        0.00000   0.00000   0.00000   0.00000   0.00000
  25        7D-1        0.04359   0.00000   0.04602   0.00000   0.00000
  26        7D+2        0.00000  -0.01349   0.00000  -0.03269   0.00000
  27        7D-2        0.00000   0.00000   0.00000   0.00000  -0.00948
  28 2   H  1S          0.04859  -0.00276  -0.01565   0.02410   0.00000
  29        2S         -0.09423  -0.17535  -0.06836  -0.15607   0.00000
  30        3S          5.15287  -5.45598   0.05009  -2.60028   0.00000
  31        4S         -0.39956  -0.50848   2.05351  -0.00022   0.00000
  32        5PX         0.00000   0.00000   0.00000   0.00000   0.01564
  33        5PY         0.00200  -0.00355   0.00386  -0.00467   0.00000
  34        5PZ         0.00145  -0.00450   0.00693   0.01344   0.00000
  35        6PX         0.00000   0.00000   0.00000   0.00000  -0.05857
  36        6PY        -0.03721   0.00764  -0.00834  -0.00470   0.00000
  37        6PZ        -0.04308   0.01211  -0.03298  -0.05533   0.00000
  38        7PX         0.00000   0.00000   0.00000   0.00000   0.97891
  39        7PY         0.43797  -0.63749  -0.06095  -0.74618   0.00000
  40        7PZ         0.30122  -0.42145   0.14145   0.65898   0.00000
  41 3   H  1S         -0.04859  -0.00276   0.01565   0.02410   0.00000
  42        2S          0.09423  -0.17535   0.06836  -0.15607   0.00000
  43        3S         -5.15287  -5.45598  -0.05009  -2.60028   0.00000
  44        4S          0.39956  -0.50848  -2.05351  -0.00022   0.00000
  45        5PX         0.00000   0.00000   0.00000   0.00000  -0.01564
  46        5PY         0.00200   0.00355   0.00386   0.00467   0.00000
  47        5PZ        -0.00145  -0.00450  -0.00693   0.01344   0.00000
  48        6PX         0.00000   0.00000   0.00000   0.00000   0.05857
  49        6PY        -0.03721  -0.00764  -0.00834   0.00470   0.00000
  50        6PZ         0.04308   0.01211   0.03298  -0.05533   0.00000
  51        7PX         0.00000   0.00000   0.00000   0.00000  -0.97891
  52        7PY         0.43797   0.63749  -0.06095   0.74618   0.00000
  53        7PZ        -0.30122  -0.42145  -0.14145   0.65898   0.00000
                          16        17        18        19        20
                        (B1)--V   (B2)--V   (B2)--V   (A1)--V   (A1)--V
     Eigenvalues --     0.53397   0.58816   0.67327   0.68207   0.82927
   1 1   O  1S          0.00000   0.00000   0.00000   0.01127  -0.04999
   2        2S          0.00000   0.00000   0.00000   0.02681  -0.08228
   3        2PX        -0.07543   0.00000   0.00000   0.00000   0.00000
   4        2PY         0.00000  -0.07206  -0.07210   0.00000   0.00000
   5        2PZ         0.00000   0.00000   0.00000   0.08560  -0.07155
   6        3S          0.00000   0.00000   0.00000  -0.24165   0.02756
   7        3PX        -0.04542   0.00000   0.00000   0.00000   0.00000
   8        3PY         0.00000  -0.21921  -0.13359   0.00000   0.00000
   9        3PZ         0.00000   0.00000   0.00000   0.17146  -0.13622
  10        4S          0.00000   0.00000   0.00000   2.65614   6.28946
  11        4PX        -0.78596   0.00000   0.00000   0.00000   0.00000
  12        4PY         0.00000   1.19770  -0.29243   0.00000   0.00000
  13        4PZ         0.00000   0.00000   0.00000  -0.12133  -2.14731
  14        5S          0.00000   0.00000   0.00000   8.01917   6.93242
  15        5PX        -0.96133   0.00000   0.00000   0.00000   0.00000
  16        5PY         0.00000   3.37340  -0.93647   0.00000   0.00000
  17        5PZ         0.00000   0.00000   0.00000  -1.95828  -1.18342
  18        6D 0        0.00000   0.00000   0.00000  -0.00004  -0.00114
  19        6D+1       -0.01174   0.00000   0.00000   0.00000   0.00000
  20        6D-1        0.00000  -0.00533   0.00034   0.00000   0.00000
  21        6D+2        0.00000   0.00000   0.00000  -0.00897   0.01974
  22        6D-2        0.00000   0.00000   0.00000   0.00000   0.00000
  23        7D 0        0.00000   0.00000   0.00000  -0.01009   0.01581
  24        7D+1       -0.00425   0.00000   0.00000   0.00000   0.00000
  25        7D-1        0.00000  -0.08987   0.02892   0.00000   0.00000
  26        7D+2        0.00000   0.00000   0.00000  -0.04558  -0.11684
  27        7D-2        0.00000   0.00000   0.00000   0.00000   0.00000
  28 2   H  1S          0.00000  -0.08132  -0.02523   0.07327  -0.04357
  29        2S          0.00000  -0.21832  -0.37832   0.85311  -2.42303
  30        3S          0.00000   7.20633   1.84447  -6.18135  -4.06917
  31        4S          0.00000  -0.72244  -0.83589   0.29490  -0.29366
  32        5PX         0.01453   0.00000   0.00000   0.00000   0.00000
  33        5PY         0.00000   0.00244   0.01506  -0.00505   0.00606
  34        5PZ         0.00000   0.00865  -0.00920  -0.00434  -0.00023
  35        6PX        -0.06106   0.00000   0.00000   0.00000   0.00000
  36        6PY         0.00000   0.00163  -0.08634  -0.01739  -0.10207
  37        6PZ         0.00000  -0.00084   0.04968   0.01708  -0.05272
  38        7PX         1.21092   0.00000   0.00000   0.00000   0.00000
  39        7PY         0.00000   1.39512   1.85417  -1.24711  -2.08488
  40        7PZ         0.00000   1.61817  -0.74089  -1.04211  -1.36325
  41 3   H  1S          0.00000   0.08132   0.02523   0.07327  -0.04357
  42        2S          0.00000   0.21832   0.37832   0.85311  -2.42303
  43        3S          0.00000  -7.20633  -1.84447  -6.18135  -4.06917
  44        4S          0.00000   0.72244   0.83589   0.29490  -0.29366
  45        5PX         0.01453   0.00000   0.00000   0.00000   0.00000
  46        5PY         0.00000   0.00244   0.01506   0.00505  -0.00606
  47        5PZ         0.00000  -0.00865   0.00920  -0.00434  -0.00023
  48        6PX        -0.06106   0.00000   0.00000   0.00000   0.00000
  49        6PY         0.00000   0.00163  -0.08634   0.01739   0.10207
  50        6PZ         0.00000   0.00084  -0.04968   0.01708  -0.05272
  51        7PX         1.21092   0.00000   0.00000   0.00000   0.00000
  52        7PY         0.00000   1.39512   1.85417   1.24711   2.08488
  53        7PZ         0.00000  -1.61817   0.74089  -1.04211  -1.36325
                          21        22        23        24        25
                        (B2)--V   (A1)--V   (B2)--V   (B1)--V   (A1)--V
     Eigenvalues --     0.91721   1.22963   1.25897   1.27741   1.65530
   1 1   O  1S          0.00000   0.00444   0.00000   0.00000   0.06612
   2        2S          0.00000   0.00620   0.00000   0.00000   0.14132
   3        2PX         0.00000   0.00000   0.00000  -0.23567   0.00000
   4        2PY         0.13538   0.00000  -0.21667   0.00000   0.00000
   5        2PZ         0.00000  -0.22907   0.00000   0.00000  -0.00362
   6        3S          0.00000   0.16128   0.00000   0.00000  -1.22372
   7        3PX         0.00000   0.00000   0.00000  -0.88092   0.00000
   8        3PY         0.19676   0.00000  -0.60673   0.00000   0.00000
   9        3PZ         0.00000  -0.72374   0.00000   0.00000  -0.16694
  10        4S          0.00000  -2.34426   0.00000   0.00000   4.15135
  11        4PX         0.00000   0.00000   0.00000   1.83242   0.00000
  12        4PY         3.76488   0.00000   3.78929   0.00000   0.00000
  13        4PZ         0.00000   2.66519   0.00000   0.00000  -0.62558
  14        5S          0.00000   0.33612   0.00000   0.00000   0.99764
  15        5PX         0.00000   0.00000   0.00000  -0.57271   0.00000
  16        5PY         1.95533   0.00000  -0.70813   0.00000   0.00000
  17        5PZ         0.00000  -0.78145   0.00000   0.00000  -0.65987
  18        6D 0        0.00000   0.01130   0.00000   0.00000   0.01199
  19        6D+1        0.00000   0.00000   0.00000   0.00947   0.00000
  20        6D-1        0.03512   0.00000   0.03500   0.00000   0.00000
  21        6D+2        0.00000  -0.01192   0.00000   0.00000   0.01689
  22        6D-2        0.00000   0.00000   0.00000   0.00000   0.00000
  23        7D 0        0.00000   0.02888   0.00000   0.00000   0.23294
  24        7D+1        0.00000   0.00000   0.00000   0.06284   0.00000
  25        7D-1       -0.18262   0.00000  -0.30391   0.00000   0.00000
  26        7D+2        0.00000   0.11045   0.00000   0.00000   0.27229
  27        7D-2        0.00000   0.00000   0.00000   0.00000   0.00000
  28 2   H  1S          0.07608   0.01942   0.06137   0.00000  -0.08332
  29        2S          2.73357   1.38882   1.72706   0.00000  -0.65685
  30        3S          6.00603  -0.16583   0.99561   0.00000  -1.61102
  31        4S         -0.30923  -0.04527  -0.84107   0.00000   0.23263
  32        5PX         0.00000   0.00000   0.00000   0.00761   0.00000
  33        5PY         0.00450  -0.02289  -0.01213   0.00000   0.00159
  34        5PZ         0.00049  -0.00549  -0.01436   0.00000   0.02924
  35        6PX         0.00000   0.00000   0.00000  -0.08671   0.00000
  36        6PY         0.07239   0.31354   0.34209   0.00000  -0.05963
  37        6PZ         0.04508   0.13016   0.27371   0.00000  -0.47875
  38        7PX         0.00000   0.00000   0.00000  -0.20346   0.00000
  39        7PY         2.77921   0.28162   0.30124   0.00000  -0.77236
  40        7PZ         2.07942   0.00388   0.71638   0.00000  -0.09277
  41 3   H  1S         -0.07608   0.01942  -0.06137   0.00000  -0.08332
  42        2S         -2.73357   1.38882  -1.72706   0.00000  -0.65685
  43        3S         -6.00603  -0.16583  -0.99561   0.00000  -1.61102
  44        4S          0.30923  -0.04527   0.84107   0.00000   0.23263
  45        5PX         0.00000   0.00000   0.00000   0.00761   0.00000
  46        5PY         0.00450   0.02289  -0.01213   0.00000  -0.00159
  47        5PZ        -0.00049  -0.00549   0.01436   0.00000   0.02924
  48        6PX         0.00000   0.00000   0.00000  -0.08671   0.00000
  49        6PY         0.07239  -0.31354   0.34209   0.00000   0.05963
  50        6PZ        -0.04508   0.13016  -0.27371   0.00000  -0.47875
  51        7PX         0.00000   0.00000   0.00000  -0.20346   0.00000
  52        7PY         2.77921  -0.28162   0.30124   0.00000   0.77236
  53        7PZ        -2.07942   0.00388  -0.71638   0.00000  -0.09277
                          26        27        28        29        30
                        (A2)--V   (A1)--V   (B1)--V   (B2)--V   (B2)--V
     Eigenvalues --     1.71613   1.75085   1.80796   2.13243   2.28296
   1 1   O  1S          0.00000   0.04925   0.00000   0.00000   0.00000
   2        2S          0.00000   0.10506   0.00000   0.00000   0.00000
   3        2PX         0.00000   0.00000   0.07509   0.00000   0.00000
   4        2PY         0.00000   0.00000   0.00000  -0.00808  -0.13295
   5        2PZ         0.00000  -0.07062   0.00000   0.00000   0.00000
   6        3S          0.00000  -0.93406   0.00000   0.00000   0.00000
   7        3PX         0.00000   0.00000   0.19133   0.00000   0.00000
   8        3PY         0.00000   0.00000   0.00000   0.04588  -0.05079
   9        3PZ         0.00000  -0.29206   0.00000   0.00000   0.00000
  10        4S          0.00000   3.38821   0.00000   0.00000   0.00000
  11        4PX         0.00000   0.00000  -0.43654   0.00000   0.00000
  12        4PY         0.00000   0.00000   0.00000   2.13912   3.55207
  13        4PZ         0.00000  -0.37981   0.00000   0.00000   0.00000
  14        5S          0.00000  -1.53009   0.00000   0.00000   0.00000
  15        5PX         0.00000   0.00000  -0.44548   0.00000   0.00000
  16        5PY         0.00000   0.00000   0.00000  -0.73664   0.77193
  17        5PZ         0.00000   0.66847   0.00000   0.00000   0.00000
  18        6D 0        0.00000  -0.01023   0.00000   0.00000   0.00000
  19        6D+1        0.00000   0.00000   0.00855   0.00000   0.00000
  20        6D-1        0.00000   0.00000   0.00000  -0.00902   0.00020
  21        6D+2        0.00000   0.00076   0.00000   0.00000   0.00000
  22        6D-2        0.01655   0.00000   0.00000   0.00000   0.00000
  23        7D 0        0.00000  -0.62626   0.00000   0.00000   0.00000
  24        7D+1        0.00000   0.00000   0.81035   0.00000   0.00000
  25        7D-1        0.00000   0.00000   0.00000  -0.51298  -1.30557
  26        7D+2        0.00000   0.12783   0.00000   0.00000   0.00000
  27        7D-2        0.63617   0.00000   0.00000   0.00000   0.00000
  28 2   H  1S          0.00000  -0.00282   0.00000  -0.17155  -0.44508
  29        2S          0.00000  -0.87762   0.00000   1.95344   3.47571
  30        3S          0.00000   0.25515   0.00000   0.64501   2.02238
  31        4S          0.00000   0.14552   0.00000  -0.29260   0.08908
  32        5PX         0.03242   0.00000   0.02517   0.00000   0.00000
  33        5PY         0.00000   0.03055   0.00000   0.02357  -0.01047
  34        5PZ         0.00000  -0.01089   0.00000  -0.04547   0.01989
  35        6PX        -0.52468   0.00000  -0.41154   0.00000   0.00000
  36        6PY         0.00000  -0.43160   0.00000  -0.41082   0.41942
  37        6PZ         0.00000   0.16461   0.00000   0.81269  -0.19677
  38        7PX         0.59354   0.00000   0.65094   0.00000   0.00000
  39        7PY         0.00000  -0.12315   0.00000   1.31326   1.18175
  40        7PZ         0.00000  -0.64917   0.00000  -0.01085   1.34064
  41 3   H  1S          0.00000  -0.00282   0.00000   0.17155   0.44508
  42        2S          0.00000  -0.87762   0.00000  -1.95344  -3.47571
  43        3S          0.00000   0.25515   0.00000  -0.64501  -2.02238
  44        4S          0.00000   0.14552   0.00000   0.29260  -0.08908
  45        5PX        -0.03242   0.00000   0.02517   0.00000   0.00000
  46        5PY         0.00000  -0.03055   0.00000   0.02357  -0.01047
  47        5PZ         0.00000  -0.01089   0.00000   0.04547  -0.01989
  48        6PX         0.52468   0.00000  -0.41154   0.00000   0.00000
  49        6PY         0.00000   0.43160   0.00000  -0.41082   0.41942
  50        6PZ         0.00000   0.16461   0.00000  -0.81269   0.19677
  51        7PX        -0.59354   0.00000   0.65094   0.00000   0.00000
  52        7PY         0.00000   0.12315   0.00000   1.31326   1.18175
  53        7PZ         0.00000  -0.64917   0.00000   0.01085  -1.34064
                          31        32        33        34        35
                        (A1)--V   (B1)--V   (A2)--V   (A1)--V   (B2)--V
     Eigenvalues --     2.28858   2.32322   2.38201   2.62527   2.75842
   1 1   O  1S          0.07397   0.00000   0.00000   0.03393   0.00000
   2        2S          0.16144   0.00000   0.00000   0.08417   0.00000
   3        2PX         0.00000  -0.04664   0.00000   0.00000   0.00000
   4        2PY         0.00000   0.00000   0.00000   0.00000   0.09208
   5        2PZ         0.06608   0.00000   0.00000  -0.05759   0.00000
   6        3S         -1.68344   0.00000   0.00000  -0.75244   0.00000
   7        3PX         0.00000  -0.05443   0.00000   0.00000   0.00000
   8        3PY         0.00000   0.00000   0.00000   0.00000   1.15861
   9        3PZ        -0.05929   0.00000   0.00000   0.29365   0.00000
  10        4S          8.98049   0.00000   0.00000   0.50269   0.00000
  11        4PX         0.00000  -0.48672   0.00000   0.00000   0.00000
  12        4PY         0.00000   0.00000   0.00000   0.00000   1.54445
  13        4PZ        -2.97684   0.00000   0.00000  -0.37773   0.00000
  14        5S          2.70385   0.00000   0.00000   1.88191   0.00000
  15        5PX         0.00000   0.31382   0.00000   0.00000   0.00000
  16        5PY         0.00000   0.00000   0.00000   0.00000  -0.90056
  17        5PZ        -0.36289   0.00000   0.00000  -0.30714   0.00000
  18        6D 0        0.00115   0.00000   0.00000  -0.00492   0.00000
  19        6D+1        0.00000  -0.01191   0.00000   0.00000   0.00000
  20        6D-1        0.00000   0.00000   0.00000   0.00000   0.01403
  21        6D+2       -0.00130   0.00000   0.00000   0.00291   0.00000
  22        6D-2        0.00000   0.00000  -0.01366   0.00000   0.00000
  23        7D 0        0.16362   0.00000   0.00000   0.82036   0.00000
  24        7D+1        0.00000   0.81830   0.00000   0.00000   0.00000
  25        7D-1        0.00000   0.00000   0.00000   0.00000  -0.71186
  26        7D+2       -1.15390   0.00000   0.00000   0.24740   0.00000
  27        7D-2        0.00000   0.00000   1.06971   0.00000   0.00000
  28 2   H  1S          0.41603   0.00000   0.00000  -0.62023  -0.46133
  29        2S         -4.11331   0.00000   0.00000   1.08455   2.75054
  30        3S         -1.80736   0.00000   0.00000  -1.72858  -1.99114
  31        4S         -0.11387   0.00000   0.00000   0.14236   0.23432
  32        5PX         0.00000  -0.05946  -0.05683   0.00000   0.00000
  33        5PY         0.00922   0.00000   0.00000  -0.00199  -0.05709
  34        5PZ         0.00501   0.00000   0.00000  -0.05812  -0.04902
  35        6PX         0.00000   0.96826   0.90532   0.00000   0.00000
  36        6PY        -0.32807   0.00000   0.00000  -0.03048   1.24494
  37        6PZ        -0.20624   0.00000   0.00000   0.93241   0.92153
  38        7PX         0.00000  -0.28962  -0.22726   0.00000   0.00000
  39        7PY        -1.51368   0.00000   0.00000  -0.22434  -0.27260
  40        7PZ        -0.95655   0.00000   0.00000  -0.36456  -0.10833
  41 3   H  1S          0.41603   0.00000   0.00000  -0.62023   0.46133
  42        2S         -4.11331   0.00000   0.00000   1.08455  -2.75054
  43        3S         -1.80736   0.00000   0.00000  -1.72858   1.99114
  44        4S         -0.11387   0.00000   0.00000   0.14236  -0.23432
  45        5PX         0.00000  -0.05946   0.05683   0.00000   0.00000
  46        5PY        -0.00922   0.00000   0.00000   0.00199  -0.05709
  47        5PZ         0.00501   0.00000   0.00000  -0.05812   0.04902
  48        6PX         0.00000   0.96826  -0.90532   0.00000   0.00000
  49        6PY         0.32807   0.00000   0.00000   0.03048   1.24494
  50        6PZ        -0.20624   0.00000   0.00000   0.93241  -0.92153
  51        7PX         0.00000  -0.28962   0.22726   0.00000   0.00000
  52        7PY         1.51368   0.00000   0.00000   0.22434  -0.27260
  53        7PZ        -0.95655   0.00000   0.00000  -0.36456   0.10833
                          36        37        38        39        40
                        (A1)--V   (A1)--V   (B2)--V   (B1)--V   (A1)--V
     Eigenvalues --     2.82541   3.18032   3.40894   5.54257   5.90276
   1 1   O  1S          0.02166  -0.03974   0.00000   0.00000  -0.01469
   2        2S          0.05765  -0.08299   0.00000   0.00000  -0.03015
   3        2PX         0.00000   0.00000   0.00000  -1.28521   0.00000
   4        2PY         0.00000   0.00000   0.33354   0.00000   0.00000
   5        2PZ        -0.00528  -0.23914   0.00000   0.00000   1.29359
   6        3S         -0.41981   0.06044   0.00000   0.00000   0.04918
   7        3PX         0.00000   0.00000   0.00000   1.52485   0.00000
   8        3PY         0.00000   0.00000   0.29216   0.00000   0.00000
   9        3PZ         0.39429  -0.63419   0.00000   0.00000  -1.87954
  10        4S         -1.64883   5.97953   0.00000   0.00000   2.25007
  11        4PX         0.00000   0.00000   0.00000  -0.88180   0.00000
  12        4PY         0.00000   0.00000   2.51637   0.00000   0.00000
  13        4PZ         1.19865  -2.46310   0.00000   0.00000  -0.03776
  14        5S          2.44931  -0.87888   0.00000   0.00000  -0.86217
  15        5PX         0.00000   0.00000   0.00000   0.16971   0.00000
  16        5PY         0.00000   0.00000  -0.28845   0.00000   0.00000
  17        5PZ        -0.89032   0.43294   0.00000   0.00000   0.08819
  18        6D 0       -0.00346   0.01037   0.00000   0.00000   0.01407
  19        6D+1        0.00000   0.00000   0.00000   0.02362   0.00000
  20        6D-1        0.00000   0.00000  -0.00049   0.00000   0.00000
  21        6D+2        0.01045   0.00992   0.00000   0.00000  -0.05946
  22        6D-2        0.00000   0.00000   0.00000   0.00000   0.00000
  23        7D 0       -0.80553   0.08792   0.00000   0.00000   0.05710
  24        7D+1        0.00000   0.00000   0.00000  -0.01167   0.00000
  25        7D-1        0.00000   0.00000  -1.67226   0.00000   0.00000
  26        7D+2       -0.29134  -1.41165   0.00000   0.00000  -0.42223
  27        7D-2        0.00000   0.00000   0.00000   0.00000   0.00000
  28 2   H  1S         -0.72299  -0.52642   1.02556   0.00000  -0.24393
  29        2S          2.27325  -3.10841   1.29541   0.00000  -1.11996
  30        3S         -2.04883   0.29456   0.58827   0.00000   0.39184
  31        4S          0.14382   0.06124  -0.44085   0.00000   0.01972
  32        5PX         0.00000   0.00000   0.00000   0.02002   0.00000
  33        5PY        -0.07390   0.06146  -0.02993   0.00000   0.06801
  34        5PZ         0.01090   0.04252  -0.01303   0.00000   0.03313
  35        6PX         0.00000   0.00000   0.00000  -0.11209   0.00000
  36        6PY         1.06931  -1.38833   0.79132   0.00000  -0.66980
  37        6PZ        -0.22547  -0.94241   0.46924   0.00000  -0.31537
  38        7PX         0.00000   0.00000   0.00000   0.15558   0.00000
  39        7PY        -0.20896  -0.32350   0.11240   0.00000  -0.02787
  40        7PZ         0.02882  -0.14233   0.30181   0.00000  -0.11677
  41 3   H  1S         -0.72299  -0.52642  -1.02556   0.00000  -0.24393
  42        2S          2.27325  -3.10841  -1.29541   0.00000  -1.11996
  43        3S         -2.04883   0.29456  -0.58827   0.00000   0.39184
  44        4S          0.14382   0.06124   0.44085   0.00000   0.01972
  45        5PX         0.00000   0.00000   0.00000   0.02002   0.00000
  46        5PY         0.07390  -0.06146  -0.02993   0.00000  -0.06801
  47        5PZ         0.01090   0.04252   0.01303   0.00000   0.03313
  48        6PX         0.00000   0.00000   0.00000  -0.11209   0.00000
  49        6PY        -1.06931   1.38833   0.79132   0.00000   0.66980
  50        6PZ        -0.22547  -0.94241  -0.46924   0.00000  -0.31537
  51        7PX         0.00000   0.00000   0.00000   0.15558   0.00000
  52        7PY         0.20896   0.32350   0.11240   0.00000   0.02787
  53        7PZ         0.02882  -0.14233  -0.30181   0.00000  -0.11677
                          41        42        43        44        45
                        (B2)--V   (A1)--V   (B1)--V   (A2)--V   (A1)--V
     Eigenvalues --     6.36809   7.26570   7.36513   7.39607   7.48086
   1 1   O  1S          0.00000  -0.00059   0.00000   0.00000  -0.00004
   2        2S          0.00000   0.01273   0.00000   0.00000   0.00189
   3        2PX         0.00000   0.00000   0.03410   0.00000   0.00000
   4        2PY        -1.25476   0.00000   0.00000   0.00000   0.00000
   5        2PZ         0.00000   0.13421   0.00000   0.00000   0.00516
   6        3S          0.00000  -0.32542   0.00000   0.00000  -0.00756
   7        3PX         0.00000   0.00000  -0.05357   0.00000   0.00000
   8        3PY         2.18810   0.00000   0.00000   0.00000   0.00000
   9        3PZ         0.00000  -0.15970   0.00000   0.00000   0.02201
  10        4S          0.00000   1.84592   0.00000   0.00000  -0.30941
  11        4PX         0.00000   0.00000   0.19516   0.00000   0.00000
  12        4PY        -0.09619   0.00000   0.00000   0.00000   0.00000
  13        4PZ         0.00000  -0.55977   0.00000   0.00000   0.33795
  14        5S          0.00000   1.56688   0.00000   0.00000  -0.21207
  15        5PX         0.00000   0.00000   0.08098   0.00000   0.00000
  16        5PY        -0.38919   0.00000   0.00000   0.00000   0.00000
  17        5PZ         0.00000  -0.34440   0.00000   0.00000   0.10152
  18        6D 0        0.00000  -0.22456   0.00000   0.00000   1.12800
  19        6D+1        0.00000   0.00000   1.13835   0.00000   0.00000
  20        6D-1       -0.20568   0.00000   0.00000   0.00000   0.00000
  21        6D+2        0.00000   1.03667   0.00000   0.00000   0.24164
  22        6D-2        0.00000   0.00000   0.00000   1.14509   0.00000
  23        7D 0        0.00000   0.08237   0.00000   0.00000  -0.72228
  24        7D+1        0.00000   0.00000  -0.60489   0.00000   0.00000
  25        7D-1       -0.65112   0.00000   0.00000   0.00000   0.00000
  26        7D+2        0.00000  -0.76584   0.00000   0.00000  -0.17161
  27        7D-2        0.00000   0.00000   0.00000  -0.65479   0.00000
  28 2   H  1S          0.43169  -0.07941   0.00000   0.00000  -0.02901
  29        2S          0.74812  -0.73359   0.00000   0.00000   0.23181
  30        3S         -1.20532  -0.93511   0.00000   0.00000   0.09931
  31        4S          0.17494  -0.05207   0.00000   0.00000   0.00550
  32        5PX         0.00000   0.00000  -0.00825  -0.00461   0.00000
  33        5PY        -0.16285  -0.29853   0.00000   0.00000  -0.01058
  34        5PZ        -0.13120  -0.18533   0.00000   0.00000  -0.07348
  35        6PX         0.00000   0.00000  -0.05921  -0.09467   0.00000
  36        6PY         0.78785   0.12969   0.00000   0.00000   0.17572
  37        6PZ         0.62579   0.03745   0.00000   0.00000  -0.06343
  38        7PX         0.00000   0.00000  -0.13208  -0.09664   0.00000
  39        7PY        -0.32521  -0.41578   0.00000   0.00000   0.07037
  40        7PZ        -0.28977  -0.26719   0.00000   0.00000  -0.08192
  41 3   H  1S         -0.43169  -0.07941   0.00000   0.00000  -0.02901
  42        2S         -0.74812  -0.73359   0.00000   0.00000   0.23181
  43        3S          1.20532  -0.93511   0.00000   0.00000   0.09931
  44        4S         -0.17494  -0.05207   0.00000   0.00000   0.00550
  45        5PX         0.00000   0.00000  -0.00825   0.00461   0.00000
  46        5PY        -0.16285   0.29853   0.00000   0.00000   0.01058
  47        5PZ         0.13120  -0.18533   0.00000   0.00000  -0.07348
  48        6PX         0.00000   0.00000  -0.05921   0.09467   0.00000
  49        6PY         0.78785  -0.12969   0.00000   0.00000  -0.17572
  50        6PZ        -0.62579   0.03745   0.00000   0.00000  -0.06343
  51        7PX         0.00000   0.00000  -0.13208   0.09664   0.00000
  52        7PY        -0.32521   0.41578   0.00000   0.00000  -0.07037
  53        7PZ         0.28977  -0.26719   0.00000   0.00000  -0.08192
                          46        47        48        49        50
                        (B2)--V   (A2)--V   (A1)--V   (B1)--V   (B2)--V
     Eigenvalues --     7.56168   8.58377   8.59571   8.62407   8.73630
   1 1   O  1S          0.00000   0.00000  -0.00071   0.00000   0.00000
   2        2S          0.00000   0.00000  -0.00284   0.00000   0.00000
   3        2PX         0.00000   0.00000   0.00000   0.01772   0.00000
   4        2PY        -0.39020   0.00000   0.00000   0.00000   0.00165
   5        2PZ         0.00000   0.00000  -0.01192   0.00000   0.00000
   6        3S          0.00000   0.00000   0.08500   0.00000   0.00000
   7        3PX         0.00000   0.00000   0.00000   0.04967   0.00000
   8        3PY         0.63884   0.00000   0.00000   0.00000  -0.07264
   9        3PZ         0.00000   0.00000   0.08862   0.00000   0.00000
  10        4S          0.00000   0.00000  -0.62051   0.00000   0.00000
  11        4PX         0.00000   0.00000   0.00000   0.09227   0.00000
  12        4PY         1.72779   0.00000   0.00000   0.00000  -0.44606
  13        4PZ         0.00000   0.00000   0.35967   0.00000   0.00000
  14        5S          0.00000   0.00000   0.35293   0.00000   0.00000
  15        5PX         0.00000   0.00000   0.00000  -0.21876   0.00000
  16        5PY         0.31179   0.00000   0.00000   0.00000   0.41280
  17        5PZ         0.00000   0.00000  -0.30578   0.00000   0.00000
  18        6D 0        0.00000   0.00000   0.07802   0.00000   0.00000
  19        6D+1        0.00000   0.00000   0.00000   0.00053   0.00000
  20        6D-1        1.09233   0.00000   0.00000   0.00000  -0.15223
  21        6D+2        0.00000   0.00000   0.00439   0.00000   0.00000
  22        6D-2        0.00000  -0.00948   0.00000   0.00000   0.00000
  23        7D 0        0.00000   0.00000  -0.21977   0.00000   0.00000
  24        7D+1        0.00000   0.00000   0.00000  -0.08659   0.00000
  25        7D-1       -1.37582   0.00000   0.00000   0.00000   0.17263
  26        7D+2        0.00000   0.00000  -0.01499   0.00000   0.00000
  27        7D-2        0.00000  -0.10154   0.00000   0.00000   0.00000
  28 2   H  1S          0.33581   0.00000   0.00292   0.00000  -0.03766
  29        2S          1.47476   0.00000   0.34441   0.00000  -0.35204
  30        3S          1.15617   0.00000  -0.22013   0.00000   0.01830
  31        4S         -0.07540   0.00000   0.00802   0.00000   0.14817
  32        5PX         0.00000   0.90238   0.00000   0.90782   0.00000
  33        5PY         0.23020   0.00000  -0.48089   0.00000  -0.48958
  34        5PZ         0.24521   0.00000   0.76903   0.00000   0.76554
  35        6PX         0.00000  -0.65011   0.00000  -0.68295   0.00000
  36        6PY         0.16116   0.00000   0.45318   0.00000   0.32237
  37        6PZ         0.04925   0.00000  -0.58107   0.00000  -0.60334
  38        7PX         0.00000   0.24138   0.00000   0.26204   0.00000
  39        7PY         0.64168   0.00000  -0.06661   0.00000  -0.35966
  40        7PZ         0.49974   0.00000   0.23631   0.00000   0.20773
  41 3   H  1S         -0.33581   0.00000   0.00292   0.00000   0.03766
  42        2S         -1.47476   0.00000   0.34441   0.00000   0.35204
  43        3S         -1.15617   0.00000  -0.22013   0.00000  -0.01830
  44        4S          0.07540   0.00000   0.00802   0.00000  -0.14817
  45        5PX         0.00000  -0.90238   0.00000   0.90782   0.00000
  46        5PY         0.23020   0.00000   0.48089   0.00000  -0.48958
  47        5PZ        -0.24521   0.00000   0.76903   0.00000  -0.76554
  48        6PX         0.00000   0.65011   0.00000  -0.68295   0.00000
  49        6PY         0.16116   0.00000  -0.45318   0.00000   0.32237
  50        6PZ        -0.04925   0.00000  -0.58107   0.00000   0.60334
  51        7PX         0.00000  -0.24138   0.00000   0.26204   0.00000
  52        7PY         0.64168   0.00000   0.06661   0.00000  -0.35966
  53        7PZ        -0.49974   0.00000   0.23631   0.00000  -0.20773
                          51        52        53
                        (A1)--V   (B2)--V   (A1)--V
     Eigenvalues --     9.02935   9.25465  51.66992
   1 1   O  1S          0.01206   0.00000  -2.24819
   2        2S         -0.00791   0.00000   2.34507
   3        2PX         0.00000   0.00000   0.00000
   4        2PY         0.00000  -0.25379   0.00000
   5        2PZ        -0.07407   0.00000  -0.01270
   6        3S          0.06356   0.00000  -0.34455
   7        3PX         0.00000   0.00000   0.00000
   8        3PY         0.00000   0.18124   0.00000
   9        3PZ        -0.15099   0.00000   0.05533
  10        4S          2.27260   0.00000   0.59543
  11        4PX         0.00000   0.00000   0.00000
  12        4PY         0.00000  -0.60150   0.00000
  13        4PZ        -1.08220   0.00000  -0.10556
  14        5S         -0.94477   0.00000   0.37103
  15        5PX         0.00000   0.00000   0.00000
  16        5PY         0.00000   0.33561   0.00000
  17        5PZ         0.35006   0.00000  -0.09425
  18        6D 0       -0.05580   0.00000  -0.00097
  19        6D+1        0.00000   0.00000   0.00000
  20        6D-1        0.00000  -0.43037   0.00000
  21        6D+2        0.47030   0.00000   0.00765
  22        6D-2        0.00000   0.00000   0.00000
  23        7D 0        0.07924   0.00000   0.00356
  24        7D+1        0.00000   0.00000   0.00000
  25        7D-1        0.00000   0.20492   0.00000
  26        7D+2       -0.50769   0.00000   0.00281
  27        7D-2        0.00000   0.00000   0.00000
  28 2   H  1S          0.00248   0.09592   0.00614
  29        2S         -1.45339  -0.53315  -0.05822
  30        3S          0.55915   0.54584  -0.34342
  31        4S          0.01530   0.06955   0.01988
  32        5PX         0.00000   0.00000   0.00000
  33        5PY         0.74323   0.75219  -0.00420
  34        5PZ         0.45446   0.42558  -0.00456
  35        6PX         0.00000   0.00000   0.00000
  36        6PY        -0.86018  -0.59603   0.05214
  37        6PZ        -0.52137  -0.32328   0.04073
  38        7PX         0.00000   0.00000   0.00000
  39        7PY        -0.01790   0.24974  -0.13156
  40        7PZ         0.02072   0.03831  -0.09026
  41 3   H  1S          0.00248  -0.09592   0.00614
  42        2S         -1.45339   0.53315  -0.05822
  43        3S          0.55915  -0.54584  -0.34342
  44        4S          0.01530  -0.06955   0.01988
  45        5PX         0.00000   0.00000   0.00000
  46        5PY        -0.74323   0.75219   0.00420
  47        5PZ         0.45446  -0.42558  -0.00456
  48        6PX         0.00000   0.00000   0.00000
  49        6PY         0.86018  -0.59603  -0.05214
  50        6PZ        -0.52137   0.32328   0.04073
  51        7PX         0.00000   0.00000   0.00000
  52        7PY         0.01790   0.24974   0.13156
  53        7PZ         0.02072  -0.03831  -0.09026
     Density Matrix:
                           1         2         3         4         5
   1 1   O  1S          0.63678
   2        2S          0.56798   0.52487
   3        2PX         0.00000   0.00000   0.16418
   4        2PY         0.00000   0.00000   0.00000   0.10394
   5        2PZ        -0.01223  -0.01950   0.00000  -0.00000   0.13254
   6        3S         -0.12961  -0.22213   0.00000  -0.00000   0.05786
   7        3PX         0.00000   0.00000   0.25546   0.00000   0.00000
   8        3PY         0.00000   0.00000   0.00000   0.16054  -0.00000
   9        3PZ        -0.01356  -0.02417   0.00000  -0.00000   0.20394
  10        4S         -0.13071  -0.21701   0.00000  -0.00000   0.12972
  11        4PX         0.00000   0.00000   0.23214   0.00000   0.00000
  12        4PY         0.00000   0.00000   0.00000   0.10836  -0.00000
  13        4PZ        -0.01095  -0.01922   0.00000  -0.00000   0.15706
  14        5S         -0.02014  -0.03365   0.00000  -0.00000   0.05505
  15        5PX         0.00000   0.00000   0.03749   0.00000   0.00000
  16        5PY        -0.00000  -0.00000   0.00000   0.00318  -0.00000
  17        5PZ         0.00125   0.00191   0.00000  -0.00000   0.01168
  18        6D 0        0.00022   0.00037  -0.00000  -0.00000  -0.00224
  19        6D+1        0.00000   0.00000  -0.00251  -0.00000   0.00000
  20        6D-1       -0.00000  -0.00000  -0.00000  -0.00603  -0.00000
  21        6D+2        0.00066   0.00111   0.00000  -0.00000   0.00237
  22        6D-2        0.00000   0.00000   0.00000   0.00000   0.00000
  23        7D 0        0.00096   0.00168  -0.00000  -0.00000  -0.01176
  24        7D+1        0.00000   0.00000  -0.01251  -0.00000  -0.00000
  25        7D-1       -0.00000  -0.00000  -0.00000  -0.01153   0.00000
  26        7D+2        0.00244   0.00381   0.00000  -0.00000  -0.00067
  27        7D-2       -0.00000  -0.00000   0.00000   0.00000   0.00000
  28 2   H  1S         -0.01478  -0.02469  -0.00000  -0.06719  -0.05004
  29        2S         -0.00042  -0.00103  -0.00000  -0.08593  -0.07825
  30        3S          0.01705   0.02820  -0.00000  -0.01746  -0.03746
  31        4S         -0.00141  -0.00230  -0.00000  -0.00534  -0.00122
  32        5PX        -0.00000  -0.00000   0.00179   0.00000  -0.00000
  33        5PY        -0.00078  -0.00134   0.00000  -0.00161  -0.00176
  34        5PZ        -0.00065  -0.00112  -0.00000  -0.00174   0.00021
  35        6PX        -0.00000  -0.00000   0.01294   0.00000  -0.00000
  36        6PY        -0.00180  -0.00309   0.00000  -0.00660  -0.01202
  37        6PZ        -0.00235  -0.00397  -0.00000  -0.00925   0.00018
  38        7PX         0.00000   0.00000   0.01114   0.00000  -0.00000
  39        7PY         0.00562   0.00915   0.00000  -0.00067  -0.00944
  40        7PZ         0.00265   0.00418   0.00000   0.00137   0.00455
  41 3   H  1S         -0.01478  -0.02469   0.00000   0.06719  -0.05004
  42        2S         -0.00042  -0.00103   0.00000   0.08593  -0.07825
  43        3S          0.01705   0.02820   0.00000   0.01746  -0.03746
  44        4S         -0.00141  -0.00230   0.00000   0.00534  -0.00122
  45        5PX         0.00000   0.00000   0.00179   0.00000   0.00000
  46        5PY         0.00078   0.00134   0.00000  -0.00161   0.00176
  47        5PZ        -0.00065  -0.00112   0.00000   0.00174   0.00021
  48        6PX         0.00000   0.00000   0.01294   0.00000   0.00000
  49        6PY         0.00180   0.00309   0.00000  -0.00660   0.01202
  50        6PZ        -0.00235  -0.00397   0.00000   0.00925   0.00018
  51        7PX        -0.00000  -0.00000   0.01114   0.00000   0.00000
  52        7PY        -0.00562  -0.00915   0.00000  -0.00067   0.00944
  53        7PZ         0.00265   0.00418  -0.00000  -0.00137   0.00455
                           6         7         8         9        10
   6        3S          0.64802
   7        3PX         0.00000   0.39751
   8        3PY        -0.00000   0.00000   0.24797
   9        3PZ         0.08122   0.00000  -0.00000   0.31391
  10        4S          0.61576   0.00000  -0.00000   0.19254   0.62904
  11        4PX         0.00000   0.36122   0.00000   0.00000   0.00000
  12        4PY        -0.00000   0.00000   0.16737  -0.00000  -0.00000
  13        4PZ         0.06361   0.00000  -0.00000   0.24174   0.14923
  14        5S          0.09756   0.00000  -0.00000   0.08377   0.11990
  15        5PX         0.00000   0.05833   0.00000   0.00000   0.00000
  16        5PY         0.00000   0.00000   0.00492  -0.00000  -0.00000
  17        5PZ        -0.00440   0.00000  -0.00000   0.01810   0.00290
  18        6D 0       -0.00115  -0.00000  -0.00000  -0.00344  -0.00235
  19        6D+1       -0.00000  -0.00390  -0.00000   0.00000   0.00000
  20        6D-1        0.00000  -0.00000  -0.00932  -0.00000   0.00000
  21        6D+2       -0.00308   0.00000  -0.00000   0.00369  -0.00138
  22        6D-2        0.00000   0.00000   0.00000   0.00000   0.00000
  23        7D 0       -0.00546  -0.00000  -0.00000  -0.01809  -0.01180
  24        7D+1       -0.00000  -0.01947  -0.00000  -0.00000   0.00000
  25        7D-1        0.00000  -0.00000  -0.01781   0.00000   0.00000
  26        7D+2       -0.01006   0.00000  -0.00000  -0.00091  -0.00943
  27        7D-2        0.00000   0.00000   0.00000   0.00000   0.00000
  28 2   H  1S          0.06786  -0.00000  -0.10377  -0.07813   0.03158
  29        2S          0.00071  -0.00000  -0.13273  -0.12084  -0.04526
  30        3S         -0.08054  -0.00000  -0.02697  -0.05683  -0.09430
  31        4S          0.00632  -0.00000  -0.00824  -0.00197   0.00495
  32        5PX         0.00000   0.00278   0.00000  -0.00000   0.00000
  33        5PY         0.00384   0.00000  -0.00248  -0.00276   0.00241
  34        5PZ         0.00332  -0.00000  -0.00269   0.00029   0.00310
  35        6PX         0.00000   0.02014   0.00000  -0.00000   0.00000
  36        6PY         0.00852   0.00000  -0.01020  -0.01867   0.00060
  37        6PZ         0.01141  -0.00000  -0.01428   0.00013   0.01035
  38        7PX        -0.00000   0.01734   0.00000  -0.00000  -0.00000
  39        7PY        -0.02556   0.00000  -0.00104  -0.01425  -0.02849
  40        7PZ        -0.01093   0.00000   0.00212   0.00716  -0.00716
  41 3   H  1S          0.06786   0.00000   0.10377  -0.07813   0.03158
  42        2S          0.00071   0.00000   0.13273  -0.12084  -0.04526
  43        3S         -0.08054   0.00000   0.02697  -0.05683  -0.09430
  44        4S          0.00632   0.00000   0.00824  -0.00197   0.00495
  45        5PX        -0.00000   0.00278   0.00000   0.00000  -0.00000
  46        5PY        -0.00384   0.00000  -0.00248   0.00276  -0.00241
  47        5PZ         0.00332   0.00000   0.00269   0.00029   0.00310
  48        6PX        -0.00000   0.02014   0.00000   0.00000  -0.00000
  49        6PY        -0.00852   0.00000  -0.01020   0.01867  -0.00060
  50        6PZ         0.01141   0.00000   0.01428   0.00013   0.01035
  51        7PX         0.00000   0.01734   0.00000   0.00000   0.00000
  52        7PY         0.02556   0.00000  -0.00104   0.01425   0.02849
  53        7PZ        -0.01093  -0.00000  -0.00212   0.00716  -0.00716
                          11        12        13        14        15
  11        4PX         0.32824
  12        4PY         0.00000   0.11297
  13        4PZ         0.00000  -0.00000   0.18616
  14        5S          0.00000  -0.00000   0.06464   0.03154
  15        5PX         0.05301   0.00000   0.00000   0.00000   0.00856
  16        5PY         0.00000   0.00332  -0.00000  -0.00000   0.00000
  17        5PZ         0.00000  -0.00000   0.01392   0.00373   0.00000
  18        6D 0       -0.00000  -0.00000  -0.00265  -0.00095  -0.00000
  19        6D+1       -0.00355  -0.00000   0.00000   0.00000  -0.00057
  20        6D-1       -0.00000  -0.00629  -0.00000   0.00000  -0.00000
  21        6D+2        0.00000  -0.00000   0.00284   0.00050   0.00000
  22        6D-2        0.00000   0.00000   0.00000   0.00000   0.00000
  23        7D 0       -0.00000  -0.00000  -0.01393  -0.00492  -0.00000
  24        7D+1       -0.01769  -0.00000  -0.00000   0.00000  -0.00286
  25        7D-1       -0.00000  -0.01202   0.00000   0.00000  -0.00000
  26        7D+2        0.00000  -0.00000  -0.00072  -0.00143   0.00000
  27        7D-2        0.00000   0.00000   0.00000   0.00000   0.00000
  28 2   H  1S         -0.00000  -0.07004  -0.06002  -0.01019  -0.00000
  29        2S         -0.00000  -0.08959  -0.09300  -0.02838  -0.00000
  30        3S         -0.00000  -0.01820  -0.04388  -0.02314  -0.00000
  31        4S         -0.00000  -0.00556  -0.00151   0.00030  -0.00000
  32        5PX         0.00252   0.00000  -0.00000  -0.00000   0.00041
  33        5PY         0.00000  -0.00168  -0.00212  -0.00019   0.00000
  34        5PZ        -0.00000  -0.00182   0.00023   0.00047  -0.00000
  35        6PX         0.01830   0.00000  -0.00000  -0.00000   0.00296
  36        6PY         0.00000  -0.00688  -0.01435  -0.00337   0.00000
  37        6PZ        -0.00000  -0.00964   0.00012   0.00141  -0.00000
  38        7PX         0.01575   0.00000  -0.00000  -0.00000   0.00254
  39        7PY         0.00000  -0.00070  -0.01101  -0.00645   0.00000
  40        7PZ         0.00000   0.00143   0.00549   0.00036   0.00000
  41 3   H  1S          0.00000   0.07004  -0.06002  -0.01019   0.00000
  42        2S          0.00000   0.08959  -0.09300  -0.02838   0.00000
  43        3S          0.00000   0.01820  -0.04388  -0.02314   0.00000
  44        4S          0.00000   0.00556  -0.00151   0.00030   0.00000
  45        5PX         0.00252   0.00000   0.00000   0.00000   0.00041
  46        5PY         0.00000  -0.00168   0.00212   0.00019   0.00000
  47        5PZ         0.00000   0.00182   0.00023   0.00047   0.00000
  48        6PX         0.01830   0.00000   0.00000   0.00000   0.00296
  49        6PY         0.00000  -0.00688   0.01435   0.00337   0.00000
  50        6PZ         0.00000   0.00964   0.00012   0.00141   0.00000
  51        7PX         0.01575   0.00000   0.00000   0.00000   0.00254
  52        7PY         0.00000  -0.00070   0.01101   0.00645   0.00000
  53        7PZ        -0.00000  -0.00143   0.00549   0.00036  -0.00000
                          16        17        18        19        20
  16        5PY         0.00010
  17        5PZ        -0.00000   0.00117
  18        6D 0       -0.00000  -0.00019   0.00004
  19        6D+1       -0.00000  -0.00000   0.00000   0.00004
  20        6D-1       -0.00018  -0.00000   0.00000   0.00000   0.00035
  21        6D+2       -0.00000   0.00027  -0.00004  -0.00000   0.00000
  22        6D-2        0.00000   0.00000  -0.00000  -0.00000  -0.00000
  23        7D 0        0.00000  -0.00103   0.00020  -0.00000   0.00000
  24        7D+1       -0.00000  -0.00000   0.00000   0.00019   0.00000
  25        7D-1       -0.00035   0.00000   0.00000   0.00000   0.00067
  26        7D+2       -0.00000   0.00009   0.00001   0.00000   0.00000
  27        7D-2        0.00000   0.00000  -0.00000  -0.00000   0.00000
  28 2   H  1S         -0.00206  -0.00578   0.00082   0.00000   0.00390
  29        2S         -0.00263  -0.00743   0.00131   0.00000   0.00499
  30        3S         -0.00053  -0.00232   0.00065   0.00000   0.00101
  31        4S         -0.00016  -0.00021   0.00002   0.00000   0.00031
  32        5PX         0.00000  -0.00000   0.00000  -0.00003   0.00000
  33        5PY        -0.00005  -0.00023   0.00003   0.00000   0.00009
  34        5PZ        -0.00005  -0.00003  -0.00000   0.00000   0.00010
  35        6PX         0.00000  -0.00000  -0.00000  -0.00020   0.00000
  36        6PY        -0.00020  -0.00127   0.00020   0.00000   0.00038
  37        6PZ        -0.00028  -0.00016  -0.00001   0.00000   0.00054
  38        7PX         0.00000  -0.00000  -0.00000  -0.00017  -0.00000
  39        7PY        -0.00002  -0.00050   0.00017  -0.00000   0.00004
  40        7PZ         0.00004   0.00060  -0.00007   0.00000  -0.00008
  41 3   H  1S          0.00206  -0.00578   0.00082  -0.00000  -0.00390
  42        2S          0.00263  -0.00743   0.00131  -0.00000  -0.00499
  43        3S          0.00053  -0.00232   0.00065  -0.00000  -0.00101
  44        4S          0.00016  -0.00021   0.00002  -0.00000  -0.00031
  45        5PX         0.00000   0.00000  -0.00000  -0.00003   0.00000
  46        5PY        -0.00005   0.00023  -0.00003   0.00000   0.00009
  47        5PZ         0.00005  -0.00003  -0.00000  -0.00000  -0.00010
  48        6PX         0.00000   0.00000  -0.00000  -0.00020   0.00000
  49        6PY        -0.00020   0.00127  -0.00020   0.00000   0.00038
  50        6PZ         0.00028  -0.00016  -0.00001  -0.00000  -0.00054
  51        7PX         0.00000   0.00000  -0.00000  -0.00017  -0.00000
  52        7PY        -0.00002   0.00050  -0.00017   0.00000   0.00004
  53        7PZ        -0.00004   0.00060  -0.00007   0.00000   0.00008
                          21        22        23        24        25
  21        6D+2        0.00007
  22        6D-2        0.00000   0.00000
  23        7D 0       -0.00021  -0.00000   0.00104
  24        7D+1       -0.00000  -0.00000   0.00000   0.00095
  25        7D-1        0.00000  -0.00000   0.00000   0.00000   0.00128
  26        7D+2        0.00005  -0.00000   0.00006  -0.00000   0.00000
  27        7D-2        0.00000   0.00000  -0.00000  -0.00000  -0.00000
  28 2   H  1S         -0.00149  -0.00000   0.00439   0.00000   0.00745
  29        2S         -0.00163  -0.00000   0.00692   0.00000   0.00953
  30        3S         -0.00024  -0.00000   0.00336   0.00000   0.00194
  31        4S         -0.00007  -0.00000   0.00011   0.00000   0.00059
  32        5PX        -0.00000   0.00000  -0.00000  -0.00014   0.00000
  33        5PY        -0.00006  -0.00000   0.00015   0.00000   0.00018
  34        5PZ        -0.00002  -0.00000  -0.00002   0.00000   0.00019
  35        6PX        -0.00000   0.00000  -0.00000  -0.00099  -0.00000
  36        6PY        -0.00031  -0.00000   0.00106  -0.00000   0.00073
  37        6PZ        -0.00007  -0.00000  -0.00002   0.00000   0.00103
  38        7PX         0.00000   0.00000  -0.00000  -0.00085  -0.00000
  39        7PY        -0.00003  -0.00000   0.00085  -0.00000   0.00007
  40        7PZ         0.00017   0.00000  -0.00040   0.00000  -0.00015
  41 3   H  1S         -0.00149  -0.00000   0.00439  -0.00000  -0.00745
  42        2S         -0.00163  -0.00000   0.00692  -0.00000  -0.00953
  43        3S         -0.00024  -0.00000   0.00336  -0.00000  -0.00194
  44        4S         -0.00007  -0.00000   0.00011  -0.00000  -0.00059
  45        5PX         0.00000   0.00000  -0.00000  -0.00014   0.00000
  46        5PY         0.00006   0.00000  -0.00015   0.00000   0.00018
  47        5PZ        -0.00002   0.00000  -0.00002  -0.00000  -0.00019
  48        6PX         0.00000   0.00000  -0.00000  -0.00099  -0.00000
  49        6PY         0.00031   0.00000  -0.00106   0.00000   0.00073
[...]
 Rotational               0.889              2.981             10.323
 Vibrational             14.444              0.030              0.004
                       Q            Log10(Q)             Ln(Q)
 Total Bot       0.313326D-02         -2.504004         -5.765681
 Total V=0       0.120927D+09          8.082522         18.610695
 Vib (Bot)       0.259158D-10        -10.586435        -24.376168
 Vib (V=0)       0.100021D+01          0.000090          0.000208
 Electronic      0.100000D+01          0.000000          0.000000
 Translational   0.300431D+07          6.477745         14.915559
 Rotational      0.402427D+02          1.604687          3.694928
 
                                             H2O HF 6-311++g(2d,3p) Opt Freq - Fu
 ll - NBO
                                                             IR Spectrum
 
     4   4                                                                      1                                                    
     2   1                                                                      7                                                    
     2   2                                                                      5                                                    
     3   3                                                                      7                                                    
 
     X   X                                                                      X                                                    
     X   X                                                                      X                                                    
     X   X                                                                      X                                                    
     X                                                                          X                                                    
     X                                                                          X                                                    
     X                                                                          X                                                    
     X                                                                          X                                                    
     X                                                                          X                                                    
     X                                                                          X                                                    
     X                                                                          X                                                    
     X                                                                          X                                                    
     X                                                                          X                                                    
     X                                                                          X                                                    
     X                                                                          X                                                    
     X                                                                          X                                                    
     X                                                                          X                                                    
     X                                                                          X                                                    
     X                                                                          X                                                    
     X                                                                          X                                                    
     X                                                                          X                                                    
 
 
                                             H2O HF 6-311++g(2d,3p) Opt Freq - Fu
 ll - NBO
                                                            Raman Spectrum
 
     4   4                                                                      1                                                    
     2   1                                                                      7                                                    
     2   2                                                                      5                                                    
     3   3                                                                      7                                                    
 
     X   X                                                                      X                                                    
     X   X                                                                                                                           
     X   X                                                                                                                           
     X   X                                                                                                                           
     X   X                                                                                                                           
     X   X                                                                                                                           
         X                                                                                                                           
         X                                                                                                                           
         X                                                                                                                           
         X                                                                                                                           
         X                                                                                                                           
         X                                                                                                                           
         X                                                                                                                           
         X                                                                                                                           
         X                                                                                                                           
         X                                                                                                                           
         X                                                                                                                           
         X                                                                                                                           
         X                                                                                                                           
         X                                                                                                                           
 
 ***** Axes restored to original set *****
 -------------------------------------------------------------------
 Center     Atomic                   Forces (Hartrees/Bohr)
 Number     Number              X              Y              Z
 -------------------------------------------------------------------
      1        8           0.000002133    0.000003018    0.000000000
      2        1          -0.000002040   -0.000000821    0.000000000
      3        1          -0.000000093   -0.000002197   -0.000000000
 -------------------------------------------------------------------
 Cartesian Forces:  Max     0.000003018 RMS     0.000001610
 Force constants in Cartesian coordinates: 
                1             2             3             4             5 
      1  0.712683D+00
      2 -0.131288D+00  0.619700D+00
      3  0.000000D+00  0.000000D+00  0.347474D-05
      4 -0.610191D+00  0.860624D-02  0.000000D+00  0.626303D+00
      5 -0.571038D-01 -0.560000D-01  0.000000D+00 -0.130014D-03  0.548461D-01
      6  0.000000D+00  0.000000D+00 -0.173737D-05  0.000000D+00  0.000000D+00
      7 -0.102492D+00  0.122682D+00  0.000000D+00 -0.161120D-01  0.572338D-01
      8  0.188392D+00 -0.563700D+00  0.000000D+00 -0.847623D-02  0.115397D-02
      9  0.000000D+00  0.000000D+00 -0.173737D-05  0.000000D+00  0.000000D+00
                6             7             8             9 
      6  0.128718D-05
      7  0.000000D+00  0.118604D+00
      8  0.000000D+00 -0.179916D+00  0.562546D+00
      9  0.000000D+00  0.000000D+00  0.000000D+00  0.128718D-05
 FormGI is forming the generalized inverse of G from B-inverse, IUseBI=4.
 Force constants in internal coordinates: 
                1             2             3 
      1  0.625834D+00
      2 -0.358978D-02  0.625834D+00
      3  0.290803D-01  0.290803D-01  0.174563D+00
 Leave Link  716 at Fri Sep  6 10:38:14 2024, MaxMem=   104857600 cpu:               0.0 elap:               0.0
 (Enter /Users/asuyarger/Applications/G16/g16/l103.exe)

 GradGradGradGradGradGradGradGradGradGradGradGradGradGradGradGradGradGrad
 Berny optimization.
 Red2BG is reusing G-inverse.
 Internal  Forces:  Max     0.000002063 RMS     0.000001857
 Search for a local minimum.
 Step number   1 out of a maximum of    2
 All quantities printed in internal units (Hartrees-Bohrs-Radians)
 Second derivative matrix not updated -- analytic derivatives used.
 The second derivative matrix:
                          R1        R2        A1
           R1           0.62583
           R2          -0.00359   0.62583
           A1           0.02908   0.02908   0.17456
 ITU=  0
     Eigenvalues ---    0.17082   0.62599   0.62942
 Angle between quadratic step and forces=  34.69 degrees.
 Linear search not attempted -- first point.
 Iteration  1 RMS(Cart)=  0.00000433 RMS(Int)=  0.00000000
 Iteration  2 RMS(Cart)=  0.00000000 RMS(Int)=  0.00000000
 ITry= 1 IFail=0 DXMaxC= 4.70D-06 DCOld= 1.00D+10 DXMaxT= 3.00D-01 DXLimC= 3.00D+00 Rises=F
 ClnCor:  largest displacement from symmetrization is 1.90D-15 for atom     3.
 Variable       Old X    -DE/DX   Delta X   Delta X   Delta X     New X
                                 (Linear)    (Quad)   (Total)
    R1        1.77647  -0.00000   0.00000  -0.00000  -0.00000   1.77646
    R2        1.77647  -0.00000   0.00000  -0.00000  -0.00000   1.77646
    A1        1.85427   0.00000   0.00000   0.00001   0.00001   1.85428
         Item               Value     Threshold  Converged?
 Maximum Force            0.000002     0.000015     YES
 RMS     Force            0.000002     0.000010     YES
 Maximum Displacement     0.000005     0.000060     YES
 RMS     Displacement     0.000004     0.000040     YES
 Predicted change in Energy=-1.379934D-11
 Optimization completed.
    -- Stationary point found.
                           ----------------------------
                           !   Optimized Parameters   !
                           ! (Angstroms and Degrees)  !
 --------------------------                            --------------------------
 ! Name  Definition              Value          Derivative Info.                !
 --------------------------------------------------------------------------------
 ! R1    R(1,2)                  0.9401         -DE/DX =    0.0                 !
 ! R2    R(1,3)                  0.9401         -DE/DX =    0.0                 !
 ! A1    A(2,1,3)              106.2416         -DE/DX =    0.0                 !
 --------------------------------------------------------------------------------
 GradGradGradGradGradGradGradGradGradGradGradGradGradGradGradGradGradGrad

 Leave Link  103 at Fri Sep  6 10:38:14 2024, MaxMem=   104857600 cpu:               0.0 elap:               0.0
 (Enter /Users/asuyarger/Applications/G16/g16/l9999.exe)

 ----------------------------------------------------------------------

 Electric dipole moment (input orientation):
 (Debye = 10**-18 statcoulomb cm , SI units = C m)
                  (au)            (Debye)         (10**-30 SI)
   Tot        0.785336D+00      0.199613D+01      0.665836D+01
   x          0.453253D+00      0.115205D+01      0.384284D+01
   y          0.641338D+00      0.163012D+01      0.543749D+01
   z          0.000000D+00      0.000000D+00      0.000000D+00

 Dipole polarizability, Alpha (input orientation).
 (esu units = cm**3 , SI units = C**2 m**2 J**-1)
 Alpha(0;0):
               (au)            (10**-24 esu)      (10**-40 SI)
   iso        0.775204D+01      0.114873D+01      0.127814D+01
   aniso      0.121620D+01      0.180222D+00      0.200524D+00
   xx         0.821674D+01      0.121759D+01      0.135476D+01
   yx        -0.399537D+00     -0.592052D-01     -0.658747D-01
   yy         0.793377D+01      0.117566D+01      0.130810D+01
   zx         0.000000D+00      0.000000D+00      0.000000D+00
   zy         0.000000D+00      0.000000D+00      0.000000D+00
   zz         0.710562D+01      0.105294D+01      0.117156D+01

 First dipole hyperpolarizability, Beta (input orientation).
 ||, _|_  parallel and perpendicular components, (z) with respect to z axis,
 vector components x,y,z.  Values do not include the 1/n! factor of 1/2.
 (esu units = statvolt**-1 cm**4 , SI units = C**3 m**3 J**-2)
 Beta(0;0,0):
               (au)            (10**-30 esu)      (10**-50 SI)
   || (z)     0.000000D+00      0.000000D+00      0.000000D+00
   _|_(z)     0.000000D+00      0.000000D+00      0.000000D+00
   x          0.315481D+02      0.272551D+00      0.101155D+00
   y          0.446396D+02      0.385651D+00      0.143131D+00
   z          0.000000D+00      0.000000D+00      0.000000D+00
   ||         0.109325D+02      0.944481D-01      0.350535D-01
   xxx        0.155958D+02      0.134736D+00      0.500058D-01
   xxy        0.191387D+01      0.165343D-01      0.613655D-02
   yxy       -0.442874D+01     -0.382609D-01     -0.142001D-01
   yyy        0.138872D+02      0.119974D+00      0.445273D-01
   xxz        0.000000D+00      0.000000D+00      0.000000D+00
   yxz        0.000000D+00      0.000000D+00      0.000000D+00
   yyz        0.000000D+00      0.000000D+00      0.000000D+00
   zxz       -0.651035D+00     -0.562443D-02     -0.208745D-02
   zyz       -0.921193D+00     -0.795839D-02     -0.295368D-02
   zzz        0.000000D+00      0.000000D+00      0.000000D+00

 ----------------------------------------------------------------------

 Dipole orientation:
     8         -0.79790090          0.55431528          0.32587009
     1          0.36254862         -0.26580936          1.39198145
     1         -1.95835042          1.37443993          1.39198145

 Electric dipole moment (dipole orientation):
 (Debye = 10**-18 statcoulomb cm , SI units = C m)
                  (au)            (Debye)         (10**-30 SI)
   Tot        0.785336D+00      0.199613D+01      0.665836D+01
   x          0.000000D+00      0.000000D+00      0.000000D+00
   y          0.000000D+00      0.000000D+00      0.000000D+00
   z          0.785336D+00      0.199613D+01      0.665836D+01

 Dipole polarizability, Alpha (dipole orientation).
 (esu units = cm**3 , SI units = C**2 m**2 J**-1)
 Alpha(0;0):
               (au)            (10**-24 esu)      (10**-40 SI)
   iso        0.775204D+01      0.114873D+01      0.127814D+01
   aniso      0.121620D+01      0.180222D+00      0.200524D+00
   xx         0.803494D+01      0.119065D+01      0.132478D+01
   yx        -0.656777D+00     -0.973243D-01     -0.108288D+00
   yy         0.756978D+01      0.112173D+01      0.124809D+01
   zx         0.000000D+00      0.000000D+00      0.000000D+00
   zy         0.000000D+00      0.000000D+00      0.000000D+00
   zz         0.765140D+01      0.113382D+01      0.126155D+01

 First dipole hyperpolarizability, Beta (dipole orientation).
 ||, _|_  parallel and perpendicular components, (z) with respect to z axis,
 vector components x,y,z.  Values do not include the 1/n! factor of 1/2.
 (esu units = statvolt**-1 cm**4 , SI units = C**3 m**3 J**-2)
 Beta(0;0,0):
               (au)            (10**-30 esu)      (10**-50 SI)
   || (z)     0.109325D+02      0.944481D-01      0.350535D-01
   _|_(z)     0.364416D+01      0.314827D-01      0.116845D-01
   x          0.000000D+00      0.000000D+00      0.000000D+00
   y          0.000000D+00      0.000000D+00      0.000000D+00
   z          0.546624D+02      0.472240D+00      0.175267D+00
   ||         0.109325D+02      0.944481D-01      0.350535D-01
   xxx        0.000000D+00      0.000000D+00      0.000000D+00
   xxy        0.000000D+00      0.000000D+00      0.000000D+00
   yxy        0.000000D+00      0.000000D+00      0.000000D+00
   yyy        0.000000D+00      0.000000D+00      0.000000D+00
   xxz        0.785343D+01      0.678476D-01      0.251809D-01
   yxz       -0.634747D+01     -0.548372D-01     -0.203523D-01
   yyz        0.335792D+01      0.290098D-01      0.107667D-01
   zxz        0.000000D+00      0.000000D+00      0.000000D+00
   zyz        0.000000D+00      0.000000D+00      0.000000D+00
   zzz        0.700943D+01      0.605561D-01      0.224748D-01

 ----------------------------------------------------------------------
 1\1\GINC-JEFFSMACSTUDIO\Freq\RHF\6-311++G(2d,3p)\H2O1\ROOT\06-Sep-2024
 \0\\#P Geom=AllCheck Guess=TCheck SCRF=Check GenChk RHF/6-311++G(2d,3p
 ) Freq\\H2O HF 6-311++g(2d,3p) Opt Freq - Full - NBO\\0,1\O,-0.3203156
 119,0.4375379142,0.00414228\H,0.6193711226,0.4642646413,0.00414228\H,-
 0.6087957629,1.3322471851,0.00414228\\Version=EM64M-G16RevA.03\State=1
 -A1\HF=-76.0568789\RMSD=1.615e-09\RMSF=1.610e-06\ZeroPoint=0.0230158\T
 hermal=0.02585\Dipole=0.4532529,0.6413381,0.\DipoleDeriv=-0.5295745,0.
 0714454,0.,0.0714454,-0.4789743,0.,0.,0.,-0.7366361,0.213078,-0.050156
 5,0.,-0.0579113,0.2911964,0.,0.,0.,0.3683181,0.3164966,-0.0212889,0.,-
 0.0135341,0.1877778,0.,0.,0.,0.3683181\Polar=8.2167361,-0.3995367,7.93
 37693,0.,0.,7.105619\PolarDeriv=-5.8535458,-1.1022427,0.2040303,0.,0.,
 -0.9473015,-1.8365808,0.7230092,-6.1572987,0.,0.,-1.3404006,0.,0.,0.,-
 0.2954634,-0.418071,0.,6.8147243,-0.0919879,1.1523132,0.,0.,1.0099975,
 0.2237719,0.8200812,0.1389638,0.,0.,0.2911479,0.,0.,0.,0.5481441,-0.07
 3948,0.,-0.9611785,1.1942306,-1.3563435,0.,0.,-0.062696,1.6128089,-1.5
 430904,6.0183348,0.,0.,1.0492527,0.,0.,0.,-0.2526807,0.492019,0.\Hyper
 Polar=15.5958162,1.9138672,-4.4287407,13.8871791,0.,0.,0.,-0.6510347,-
 0.9211928,0.\Quadrupole=0.8322663,0.3106736,-1.1429398,-0.7364662,0.,0
 .\PG=C02V [C2(O1),SGV(H2)]\NImag=0\\0.71268299,-0.13128830,0.61969974,
 0.,0.,0.00000347,-0.61019132,0.00860624,0.,0.62630332,-0.05710381,-0.0
 5600005,0.,-0.00013001,0.05484608,0.,0.,-0.00000174,0.,0.,0.00000129,-
 0.10249167,0.12268206,0.,-0.01611200,0.05723382,0.,0.11860368,0.188392
 11,-0.56369969,0.,-0.00847623,0.00115397,0.,-0.17991589,0.56254573,0.,
 0.,-0.00000174,0.,0.,0.00000045,0.,0.,0.00000129\\-0.00000213,-0.00000
 302,0.,0.00000204,0.00000082,0.,0.00000009,0.00000220,0.\\\@


 THE MORE PROGRESS PHYSICAL SCIENCES MAKE, THE MORE THEY TEND TO ENTER
 THE DOMAIN OF MATHEMATICS, WHICH IS A KIND OF CENTRE TO WHICH THEY ALL
 CONVERGE.  WE MAY EVEN JUDGE THE DEGREE OF PERFECTION TO WHICH A 
 SCIENCE HAS ARRIVED BY THE FACILITY WITH WHICH IT MAY BE SUBMITTED
 TO CALCULATION.

                               -- ADOLPHE QUETELET, 1796-1874
 Job cpu time:       0 days  0 hours  0 minutes  2.2 seconds.
 Elapsed time:       0 days  0 hours  0 minutes  2.0 seconds.
 File lengths (MBytes):  RWF=      6 Int=      0 D2E=      0 Chk=      1 Scr=      1
 Normal termination of Gaussian 16 at Fri Sep  6 10:38:14 2024.
