 Entering Gaussian System, Link 0=g16
 Input=/Users/asuyarger/Downloads/N2_DFT_WB97XD_6311pp2d3p_Opt_Freq_Full.gjf
 Output=/Users/asuyarger/Downloads/N2_DFT_WB97XD_6311pp2d3p_Opt_Freq_Full.log
 Initial command:
 /Users/asuyarger/Applications/G16/g16/l1.exe "/Users/asuyarger/Applications/G16/scratch/Gau-88480.inp" -scrdir="/Users/asuyarger/Applications/G16/scratch/"
 Entering Link 1 = /Users/asuyarger/Applications/G16/g16/l1.exe PID=     88481.
  
 Copyright (c) 1988,1990,1992,1993,1995,1998,2003,2009,2016,
            Gaussian, Inc.  All Rights Reserved.
  
 This is part of the Gaussian(R) 16 program.  It is based on
 the Gaussian(R) 09 system (copyright 2009, Gaussian, Inc.),
 the Gaussian(R) 03 system (copyright 2003, Gaussian, Inc.),
 the Gaussian(R) 98 system (copyright 1998, Gaussian, Inc.),
 the Gaussian(R) 94 system (copyright 1995, Gaussian, Inc.),
 the Gaussian 92(TM) system (copyright 1992, Gaussian, Inc.),
 the Gaussian 90(TM) system (copyright 1990, Gaussian, Inc.),
 the Gaussian 88(TM) system (copyright 1988, Gaussian, Inc.),
 the Gaussian 86(TM) system (copyright 1986, Carnegie Mellon
 University), and the Gaussian 82(TM) system (copyright 1983,
 Carnegie Mellon University). Gaussian is a federally registered
 trademark of Gaussian, Inc.
  
 This software contains proprietary and confidential information,
 including trade secrets, belonging to Gaussian, Inc.
  
 This software is provided under written license and may be
 used, copied, transmitted, or stored only in accord with that
 written license.
  
 The following legend is applicable only to US Government
 contracts under FAR:
  
                    RESTRICTED RIGHTS LEGEND
  
 Use, reproduction and disclosure by the US Government is
 subject to restrictions as set forth in subparagraphs (a)
 and (c) of the Commercial Computer Software - Restricted
 Rights clause in FAR 52.227-19.
  
 Gaussian, Inc.
 340 Quinnipiac St., Bldg. 40, Wallingford CT 06492
  
  
 ---------------------------------------------------------------
 Warning -- This program may not be used in any manner that
 competes with the business of Gaussian, Inc. or will provide
 assistance to any competitor of Gaussian, Inc.  The licensee
 of this program is prohibited from giving any competitor of
 Gaussian, Inc. access to this program.  By using this program,
 the user acknowledges that Gaussian, Inc. is engaged in the
 business of creating and licensing software in the field of
 computational chemistry and represents and warrants to the
 licensee that it is not a competitor of Gaussian, Inc. and that
 it will not use this program in any manner prohibited above.
 ---------------------------------------------------------------
  

 Cite this work as:
 Gaussian 16, Revision A.03,
 M. J. Frisch, G. W. Trucks, H. B. Schlegel, G. E. Scuseria, 
 M. A. Robb, J. R. Cheeseman, G. Scalmani, V. Barone, 
 G. A. Petersson, H. Nakatsuji, X. Li, M. Caricato, A. V. Marenich, 
 J. Bloino, B. G. Janesko, R. Gomperts, B. Mennucci, H. P. Hratchian, 
 J. V. Ortiz, A. F. Izmaylov, J. L. Sonnenberg, D. Williams-Young, 
 F. Ding, F. Lipparini, F. Egidi, J. Goings, B. Peng, A. Petrone, 
 T. Henderson, D. Ranasinghe, V. G. Zakrzewski, J. Gao, N. Rega, 
 G. Zheng, W. Liang, M. Hada, M. Ehara, K. Toyota, R. Fukuda, 
 J. Hasegawa, M. Ishida, T. Nakajima, Y. Honda, O. Kitao, H. Nakai, 
 T. Vreven, K. Throssell, J. A. Montgomery, Jr., J. E. Peralta, 
 F. Ogliaro, M. J. Bearpark, J. J. Heyd, E. N. Brothers, K. N. Kudin, 
 V. N. Staroverov, T. A. Keith, R. Kobayashi, J. Normand, 
 K. Raghavachari, A. P. Rendell, J. C. Burant, S. S. Iyengar, 
 J. Tomasi, M. Cossi, J. M. Millam, M. Klene, C. Adamo, R. Cammi, 
 J. W. Ochterski, R. L. Martin, K. Morokuma, O. Farkas, 
 J. B. Foresman, and D. J. Fox, Gaussian, Inc., Wallingford CT, 2016.
 
 ******************************************
 Gaussian 16:  EM64M-G16RevA.03 25-Dec-2016
                 6-Sep-2024 
 ******************************************
 %chk=N2_DFT_WB97XD_6311pp2d3p_Opt_Freq_Full.chk
 ----------------------------------------------------------------------
 #p opt freq=raman wb97xd/6-311++g(2d,3p) guess=save pop=(hirshfeld,ful
 l) geom=connectivity polar
 ----------------------------------------------------------------------
 1/18=20,19=15,26=3,38=1,57=2/1,3;
 2/9=110,12=2,17=6,18=5,40=1/2;
 3/5=4,6=6,7=1512,11=2,25=1,30=1,71=1,74=-58/1,2,3;
 4//1;
 5/5=2,38=5,98=1/2;
 6/7=3,28=1,79=1/1;
 7//1,2,3,16;
 1/18=20,19=15,26=3/3(2);
 2/9=110/2;
 99//99;
 2/9=110/2;
 3/5=4,6=6,7=1512,11=2,25=1,30=1,71=1,74=-58/1,2,3;
 4/5=5,16=3,69=1/1;
 5/5=2,38=5,98=1/2;
 7//1,2,3,16;
 1/18=20,19=15,26=3/3(-5);
 2/9=110/2;
 6/7=3,19=2,28=1,79=1/1;
 99/9=1/99;
 Leave Link    1 at Fri Sep  6 09:52:08 2024, MaxMem=           0 cpu:               0.0 elap:               0.0
 (Enter /Users/asuyarger/Applications/G16/g16/l101.exe)
 -----------------------------------
 N2 Opt Freq HF 6-311++g(2d,3p) Full
 -----------------------------------
 Symbolic Z-matrix:
 Charge =  0 Multiplicity = 1
 N                     0.63322   0.52632   0. 
 N                    -0.45878   0.52632   0. 
 
 ITRead=  0  0
 MicOpt= -1 -1
 NAtoms=      2 NQM=        2 NQMF=       0 NMMI=      0 NMMIF=      0
                NMic=       0 NMicF=      0.
                    Isotopes and Nuclear Properties:
 (Nuclear quadrupole moments (NQMom) in fm**2, nuclear magnetic moments (NMagM)
  in nuclear magnetons)

  Atom         1           2
 IAtWgt=          14          14
 AtmWgt=  14.0030740  14.0030740
 NucSpn=           2           2
 AtZEff=  -0.0000000  -0.0000000
 NQMom=    2.0440000   2.0440000
 NMagM=    0.4037610   0.4037610
 AtZNuc=   7.0000000   7.0000000
 Leave Link  101 at Fri Sep  6 09:52:08 2024, MaxMem=   104857600 cpu:               0.1 elap:               0.1
 (Enter /Users/asuyarger/Applications/G16/g16/l103.exe)

 GradGradGradGradGradGradGradGradGradGradGradGradGradGradGradGradGradGrad
 Berny optimization.
 Initialization pass.
                           ----------------------------
                           !    Initial Parameters    !
                           ! (Angstroms and Degrees)  !
 --------------------------                            --------------------------
 ! Name  Definition              Value          Derivative Info.                !
 --------------------------------------------------------------------------------
 ! R1    R(1,2)                  1.092          estimate D2E/DX2                !
 --------------------------------------------------------------------------------
 Trust Radius=3.00D-01 FncErr=1.00D-07 GrdErr=1.00D-06 EigMax=2.50D+02 EigMin=1.00D-04
 Number of steps in this run=     20 maximum allowed number of steps=    100.
 GradGradGradGradGradGradGradGradGradGradGradGradGradGradGradGradGradGrad

 Leave Link  103 at Fri Sep  6 09:52:08 2024, MaxMem=   104857600 cpu:               0.0 elap:               0.0
 (Enter /Users/asuyarger/Applications/G16/g16/l202.exe)
                          Input orientation:                          
 ---------------------------------------------------------------------
 Center     Atomic      Atomic             Coordinates (Angstroms)
 Number     Number       Type             X           Y           Z
 ---------------------------------------------------------------------
      1          7           0        0.633224    0.526316    0.000000
      2          7           0       -0.458776    0.526316    0.000000
 ---------------------------------------------------------------------
 Stoichiometry    N2
 Framework group  D*H[C*(N.N)]
 Deg. of freedom     1
 Full point group                 D*H     NOp   8
 Largest Abelian subgroup         D2H     NOp   8
 Largest concise Abelian subgroup C2      NOp   2
                         Standard orientation:                         
 ---------------------------------------------------------------------
 Center     Atomic      Atomic             Coordinates (Angstroms)
 Number     Number       Type             X           Y           Z
 ---------------------------------------------------------------------
      1          7           0        0.000000    0.000000    0.546000
      2          7           0        0.000000    0.000000   -0.546000
 ---------------------------------------------------------------------
 Rotational constants (GHZ):           0.0000000          60.5310956          60.5310956
 Leave Link  202 at Fri Sep  6 09:52:08 2024, MaxMem=   104857600 cpu:               0.0 elap:               0.0
 (Enter /Users/asuyarger/Applications/G16/g16/l301.exe)
 Standard basis: 6-311++G(2d,3p) (5D, 7F)
 Ernie: Thresh=  0.10000D-02 Tol=  0.10000D-05 Strict=F.
 There are    15 symmetry adapted cartesian basis functions of AG  symmetry.
 There are     2 symmetry adapted cartesian basis functions of B1G symmetry.
 There are     6 symmetry adapted cartesian basis functions of B2G symmetry.
 There are     6 symmetry adapted cartesian basis functions of B3G symmetry.
 There are     2 symmetry adapted cartesian basis functions of AU  symmetry.
 There are    15 symmetry adapted cartesian basis functions of B1U symmetry.
 There are     6 symmetry adapted cartesian basis functions of B2U symmetry.
 There are     6 symmetry adapted cartesian basis functions of B3U symmetry.
 There are    13 symmetry adapted basis functions of AG  symmetry.
 There are     2 symmetry adapted basis functions of B1G symmetry.
 There are     6 symmetry adapted basis functions of B2G symmetry.
 There are     6 symmetry adapted basis functions of B3G symmetry.
 There are     2 symmetry adapted basis functions of AU  symmetry.
 There are    13 symmetry adapted basis functions of B1U symmetry.
 There are     6 symmetry adapted basis functions of B2U symmetry.
 There are     6 symmetry adapted basis functions of B3U symmetry.
    54 basis functions,    84 primitive gaussians,    58 cartesian basis functions
     7 alpha electrons        7 beta electrons
       nuclear repulsion energy        23.7451312592 Hartrees.
 IExCor= 4639 DFT=T Ex+Corr=wB97XD ExCW=0 ScaHFX=  1.000000
 ScaDFX=  1.000000  1.000000  1.000000  1.000000 ScalE2=  1.000000  1.000000
 IRadAn=      5 IRanWt=     -1 IRanGd=            0 ICorTp=0 IEmpDi=121
 HFx  wShort=  0.000000 wLong=  0.200000 cFull=  0.222036 cShort=  0.000000 cLong=  0.777964
 DFx  wShort=  0.000000 wLong=  0.200000 cFull=  0.000000 cShort=  0.000000 cLong=  1.000000
 NAtoms=    2 NActive=    2 NUniq=    1 SFac= 4.00D+00 NAtFMM=   60 NAOKFM=F Big=F
 Integral buffers will be    131072 words long.
 Raffenetti 2 integral format.
 Two-electron integral symmetry is turned on.
 R6Disp:  Grimme-D2 Dispersion energy=       -0.0000005850 Hartrees.
 Nuclear repulsion after empirical dispersion term =       23.7451306742 Hartrees.
 Leave Link  301 at Fri Sep  6 09:52:08 2024, MaxMem=   104857600 cpu:               0.0 elap:               0.0
 (Enter /Users/asuyarger/Applications/G16/g16/l302.exe)
 NPDir=0 NMtPBC=     1 NCelOv=     1 NCel=       1 NClECP=     1 NCelD=      1
         NCelK=      1 NCelE2=     1 NClLst=     1 CellRange=     0.0.
 One-electron integrals computed using PRISM.
 One-electron integral symmetry used in STVInt
 NBasis=    54 RedAO= T EigKep=  1.96D-04  NBF=    13     2     6     6     2    13     6     6
 NBsUse=    54 1.00D-06 EigRej= -1.00D+00 NBFU=    13     2     6     6     2    13     6     6
 Precomputing XC quadrature grid using
 IXCGrd= 4 IRadAn=           5 IRanWt=          -1 IRanGd=           0 AccXCQ= 0.00D+00.
 Generated NRdTot=       0 NPtTot=           0 NUsed=           0 NTot=          32
 NSgBfM=    58    58    58    58    58 MxSgAt=     2 MxSgA2=     2.
 Leave Link  302 at Fri Sep  6 09:52:09 2024, MaxMem=   104857600 cpu:               0.0 elap:               0.1
 (Enter /Users/asuyarger/Applications/G16/g16/l303.exe)
 DipDrv:  MaxL=1.
 Leave Link  303 at Fri Sep  6 09:52:09 2024, MaxMem=   104857600 cpu:               0.0 elap:               0.0
 (Enter /Users/asuyarger/Applications/G16/g16/l401.exe)
 ExpMin= 6.39D-02 ExpMax= 6.29D+03 ExpMxC= 9.49D+02 IAcc=3 IRadAn=         5 AccDes= 0.00D+00
 Harris functional with IExCor= 4639 and IRadAn=       5 diagonalized for initial guess.
 HarFok:  IExCor= 4639 AccDes= 0.00D+00 IRadAn=         5 IDoV= 1 UseB2=F ITyADJ=14
 ICtDFT=  3500011 ScaDFX=  1.000000  1.000000  1.000000  1.000000
 FoFCou: FMM=F IPFlag=           0 FMFlag=      100000 FMFlg1=           0
         NFxFlg=           0 DoJE=T BraDBF=F KetDBF=T FulRan=T
         wScrn=  0.000000 ICntrl=       500 IOpCl=  0 I1Cent=   200000004 NGrid=           0
         NMat0=    1 NMatS0=      1 NMatT0=    0 NMatD0=    1 NMtDS0=    0 NMtDT0=    0
 Petite list used in FoFCou.
 Harris En= -105.447392273075    
 JPrj=0 DoOrth=F DoCkMO=F.
 Initial guess orbital symmetries:
       Occupied  (SGG) (SGU) (SGG) (SGU) (PIU) (PIU) (SGG)
       Virtual   (PIG) (PIG) (SGU) (SGG) (PIU) (PIU) (SGG) (PIG)
                 (PIG) (SGU) (SGU) (SGG) (PIU) (PIU) (PIG) (PIG)
                 (DLTG) (DLTG) (SGU) (SGG) (PIU) (PIU) (SGU) (DLTU)
                 (DLTU) (PIG) (PIG) (SGG) (SGU) (PIU) (PIU) (PIG)
                 (PIG) (SGG) (PIU) (PIU) (SGG) (DLTG) (DLTG) (SGU)
                 (DLTU) (DLTU) (PIG) (PIG) (SGU) (SGG) (SGU)
 The electronic state of the initial guess is 1-SGG.
 Leave Link  401 at Fri Sep  6 09:52:09 2024, MaxMem=   104857600 cpu:               0.1 elap:               0.1
 (Enter /Users/asuyarger/Applications/G16/g16/l502.exe)
 Keep R1 ints in memory in symmetry-blocked form, NReq=3093479.
 FoFCou: FMM=F IPFlag=           0 FMFlag=           0 FMFlg1=           0
         NFxFlg=           0 DoJE=F BraDBF=F KetDBF=F FulRan=T
         wScrn=  0.000000 ICntrl=       600 IOpCl=  0 I1Cent=           0 NGrid=           0
         NMat0=    1 NMatS0=   1485 NMatT0=    0 NMatD0=    1 NMtDS0=    0 NMtDT0=    0
 Petite list used in FoFCou.
 Closed shell SCF:
 Using DIIS extrapolation, IDIIS=  1040.
 NGot=   104857600 LenX=   104695113 LenY=   104691308
 Requested convergence on RMS density matrix=1.00D-08 within 128 cycles.
 Requested convergence on MAX density matrix=1.00D-06.
 Requested convergence on             energy=1.00D-06.
 No special actions if energy rises.
 Integral accuracy reduced to 1.0D-05 until final iterations.

 Cycle   1  Pass 0  IDiag  1:
 E= -109.463535409525    
 DIIS: error= 1.35D-01 at cycle   1 NSaved=   1.
 NSaved= 1 IEnMin= 1 EnMin= -109.463535409525     IErMin= 1 ErrMin= 1.35D-01
 ErrMax= 1.35D-01  0.00D+00 EMaxC= 1.00D-01 BMatC= 2.64D-01 BMatP= 2.64D-01
 IDIUse=3 WtCom= 0.00D+00 WtEn= 1.00D+00
 Coeff-Com:  0.100D+01
 Coeff-En:   0.100D+01
 Coeff:      0.100D+01
 Gap=     0.597 Goal=   None    Shift=    0.000
 GapD=    0.597 DampG=2.000 DampE=0.250 DampFc=0.5000 IDamp=-1.
 Damping current iteration by 5.00D-01
 RMSDP=5.03D-03 MaxDP=8.95D-02              OVMax= 1.05D-01

 Cycle   2  Pass 0  IDiag  1:
 E= -109.494809672154     Delta-E=       -0.031274262628 Rises=F Damp=T
 DIIS: error= 6.10D-02 at cycle   2 NSaved=   2.
 NSaved= 2 IEnMin= 2 EnMin= -109.494809672154     IErMin= 2 ErrMin= 6.10D-02
 ErrMax= 6.10D-02  0.00D+00 EMaxC= 1.00D-01 BMatC= 5.05D-02 BMatP= 2.64D-01
 IDIUse=3 WtCom= 3.90D-01 WtEn= 6.10D-01
 Coeff-Com: -0.706D+00 0.171D+01
 Coeff-En:   0.000D+00 0.100D+01
 Coeff:     -0.276D+00 0.128D+01
 Gap=     0.580 Goal=   None    Shift=    0.000
 RMSDP=2.82D-03 MaxDP=3.71D-02 DE=-3.13D-02 OVMax= 2.18D-02

 Cycle   3  Pass 0  IDiag  1:
 E= -109.521690832956     Delta-E=       -0.026881160803 Rises=F Damp=F
 DIIS: error= 2.09D-03 at cycle   3 NSaved=   3.
 NSaved= 3 IEnMin= 3 EnMin= -109.521690832956     IErMin= 3 ErrMin= 2.09D-03
 ErrMax= 2.09D-03  0.00D+00 EMaxC= 1.00D-01 BMatC= 1.87D-04 BMatP= 5.05D-02
 IDIUse=3 WtCom= 9.79D-01 WtEn= 2.09D-02
 Coeff-Com:  0.937D-01-0.179D+00 0.109D+01
 Coeff-En:   0.000D+00 0.000D+00 0.100D+01
 Coeff:      0.918D-01-0.176D+00 0.108D+01
 Gap=     0.576 Goal=   None    Shift=    0.000
 RMSDP=1.15D-03 MaxDP=1.50D-02 DE=-2.69D-02 OVMax= 4.37D-03

 Cycle   4  Pass 0  IDiag  1:
 E= -109.521827975516     Delta-E=       -0.000137142560 Rises=F Damp=F
 DIIS: error= 3.17D-04 at cycle   4 NSaved=   4.
 NSaved= 4 IEnMin= 4 EnMin= -109.521827975516     IErMin= 4 ErrMin= 3.17D-04
 ErrMax= 3.17D-04  0.00D+00 EMaxC= 1.00D-01 BMatC= 3.78D-06 BMatP= 1.87D-04
 IDIUse=3 WtCom= 9.97D-01 WtEn= 3.17D-03
 Coeff-Com:  0.106D-01-0.249D-01-0.509D-01 0.107D+01
 Coeff-En:   0.000D+00 0.000D+00 0.000D+00 0.100D+01
 Coeff:      0.106D-01-0.249D-01-0.507D-01 0.106D+01
 Gap=     0.576 Goal=   None    Shift=    0.000
 RMSDP=1.86D-04 MaxDP=2.75D-03 DE=-1.37D-04 OVMax= 1.32D-03

 Cycle   5  Pass 0  IDiag  1:
 E= -109.521833878732     Delta-E=       -0.000005903216 Rises=F Damp=F
 DIIS: error= 4.83D-05 at cycle   5 NSaved=   5.
 NSaved= 5 IEnMin= 5 EnMin= -109.521833878732     IErMin= 5 ErrMin= 4.83D-05
 ErrMax= 4.83D-05  0.00D+00 EMaxC= 1.00D-01 BMatC= 8.99D-08 BMatP= 3.78D-06
 IDIUse=1 WtCom= 1.00D+00 WtEn= 0.00D+00
 Coeff-Com: -0.278D-02 0.546D-02-0.328D-01 0.446D-02 0.103D+01
 Coeff:     -0.278D-02 0.546D-02-0.328D-01 0.446D-02 0.103D+01
 Gap=     0.576 Goal=   None    Shift=    0.000
 RMSDP=2.14D-05 MaxDP=4.85D-04 DE=-5.90D-06 OVMax= 2.69D-04

 Cycle   6  Pass 0  IDiag  1:
 E= -109.521834034428     Delta-E=       -0.000000155696 Rises=F Damp=F
 DIIS: error= 1.25D-05 at cycle   6 NSaved=   6.
 NSaved= 6 IEnMin= 6 EnMin= -109.521834034428     IErMin= 6 ErrMin= 1.25D-05
 ErrMax= 1.25D-05  0.00D+00 EMaxC= 1.00D-01 BMatC= 1.24D-09 BMatP= 8.99D-08
 IDIUse=1 WtCom= 1.00D+00 WtEn= 0.00D+00
 Coeff-Com: -0.372D-03 0.829D-03 0.128D-02-0.200D-01-0.115D-01 0.103D+01
 Coeff:     -0.372D-03 0.829D-03 0.128D-02-0.200D-01-0.115D-01 0.103D+01
 Gap=     0.576 Goal=   None    Shift=    0.000
 RMSDP=5.03D-06 MaxDP=6.70D-05 DE=-1.56D-07 OVMax= 4.00D-05

 Initial convergence to 1.0D-05 achieved.  Increase integral accuracy.
 Cycle   7  Pass 1  IDiag  1:
 E= -109.521845100179     Delta-E=       -0.000011065751 Rises=F Damp=F
 DIIS: error= 2.73D-05 at cycle   1 NSaved=   1.
 NSaved= 1 IEnMin= 1 EnMin= -109.521845100179     IErMin= 1 ErrMin= 2.73D-05
 ErrMax= 2.73D-05  0.00D+00 EMaxC= 1.00D-01 BMatC= 1.81D-08 BMatP= 1.81D-08
 IDIUse=1 WtCom= 1.00D+00 WtEn= 0.00D+00
 Coeff-Com:  0.100D+01
 Coeff:      0.100D+01
 Gap=     0.576 Goal=   None    Shift=    0.000
 RMSDP=5.03D-06 MaxDP=6.70D-05 DE=-1.11D-05 OVMax= 2.03D-05

 Cycle   8  Pass 1  IDiag  1:
 E= -109.521845109002     Delta-E=       -0.000000008822 Rises=F Damp=F
 DIIS: error= 2.57D-06 at cycle   2 NSaved=   2.
 NSaved= 2 IEnMin= 2 EnMin= -109.521845109002     IErMin= 2 ErrMin= 2.57D-06
 ErrMax= 2.57D-06  0.00D+00 EMaxC= 1.00D-01 BMatC= 9.42D-11 BMatP= 1.81D-08
 IDIUse=1 WtCom= 1.00D+00 WtEn= 0.00D+00
 Coeff-Com: -0.581D-01 0.106D+01
 Coeff:     -0.581D-01 0.106D+01
 Gap=     0.576 Goal=   None    Shift=    0.000
 RMSDP=3.00D-07 MaxDP=4.56D-06 DE=-8.82D-09 OVMax= 5.04D-06

 Cycle   9  Pass 1  IDiag  1:
 E= -109.521845109117     Delta-E=       -0.000000000116 Rises=F Damp=F
 DIIS: error= 2.62D-07 at cycle   3 NSaved=   3.
 NSaved= 3 IEnMin= 3 EnMin= -109.521845109117     IErMin= 3 ErrMin= 2.62D-07
 ErrMax= 2.62D-07  0.00D+00 EMaxC= 1.00D-01 BMatC= 1.81D-12 BMatP= 9.42D-11
 IDIUse=1 WtCom= 1.00D+00 WtEn= 0.00D+00
 Coeff-Com:  0.727D-02-0.171D+00 0.116D+01
 Coeff:      0.727D-02-0.171D+00 0.116D+01
 Gap=     0.576 Goal=   None    Shift=    0.000
 RMSDP=1.45D-07 MaxDP=2.59D-06 DE=-1.16D-10 OVMax= 1.07D-06

 Cycle  10  Pass 1  IDiag  1:
 E= -109.521845109121     Delta-E=       -0.000000000004 Rises=F Damp=F
 DIIS: error= 8.02D-08 at cycle   4 NSaved=   4.
 NSaved= 4 IEnMin= 4 EnMin= -109.521845109121     IErMin= 4 ErrMin= 8.02D-08
 ErrMax= 8.02D-08  0.00D+00 EMaxC= 1.00D-01 BMatC= 1.00D-13 BMatP= 1.81D-12
 IDIUse=1 WtCom= 1.00D+00 WtEn= 0.00D+00
 Coeff-Com:  0.127D-02-0.299D-01 0.889D-01 0.940D+00
 Coeff:      0.127D-02-0.299D-01 0.889D-01 0.940D+00
 Gap=     0.576 Goal=   None    Shift=    0.000
 RMSDP=2.35D-08 MaxDP=4.27D-07 DE=-4.29D-12 OVMax= 2.24D-07

 Cycle  11  Pass 1  IDiag  1:
 E= -109.521845109121     Delta-E=       -0.000000000000 Rises=F Damp=F
 DIIS: error= 1.66D-08 at cycle   5 NSaved=   5.
 NSaved= 5 IEnMin= 5 EnMin= -109.521845109121     IErMin= 5 ErrMin= 1.66D-08
 ErrMax= 1.66D-08  0.00D+00 EMaxC= 1.00D-01 BMatC= 8.98D-15 BMatP= 1.00D-13
 IDIUse=1 WtCom= 1.00D+00 WtEn= 0.00D+00
 Coeff-Com: -0.154D-03 0.521D-02-0.713D-01 0.171D+00 0.895D+00
 Coeff:     -0.154D-03 0.521D-02-0.713D-01 0.171D+00 0.895D+00
 Gap=     0.576 Goal=   None    Shift=    0.000
 RMSDP=8.37D-09 MaxDP=1.67D-07 DE=-2.84D-14 OVMax= 4.54D-08

 SCF Done:  E(RwB97XD) =  -109.521845109     A.U. after   11 cycles
            NFock= 11  Conv=0.84D-08     -V/T= 2.0028
 KE= 1.092143769076D+02 PE=-3.039945733489D+02 EE= 6.151322065799D+01
 Leave Link  502 at Fri Sep  6 09:52:09 2024, MaxMem=   104857600 cpu:               0.4 elap:               0.4
 (Enter /Users/asuyarger/Applications/G16/g16/l601.exe)
 Copying SCF densities to generalized density rwf, IOpCl= 0 IROHF=0.

 **********************************************************************

            Population analysis using the SCF density.

 **********************************************************************

 Orbital symmetries:
       Occupied  (SGG) (SGU) (SGG) (SGU) (PIU) (PIU) (SGG)
       Virtual   (PIG) (PIG) (SGG) (SGU) (PIU) (PIU) (SGG) (PIG)
                 (PIG) (SGU) (SGU) (SGG) (PIU) (PIU) (PIG) (PIG)
                 (DLTG) (DLTG) (SGU) (SGG) (PIU) (PIU) (SGU) (DLTU)
                 (DLTU) (PIG) (PIG) (SGG) (SGU) (PIU) (PIU) (PIG)
                 (PIG) (SGG) (PIU) (PIU) (SGG) (DLTG) (DLTG) (SGU)
                 (DLTU) (DLTU) (PIG) (PIG) (SGU) (SGG) (SGU)
 The electronic state is 1-SGG.
 Alpha  occ. eigenvalues --  -14.53827 -14.53636  -1.23723  -0.64976  -0.56002
 Alpha  occ. eigenvalues --   -0.56002  -0.52657
 Alpha virt. eigenvalues --    0.04922   0.04922   0.13773   0.13978   0.16060
 Alpha virt. eigenvalues --    0.16060   0.21172   0.23473   0.23473   0.32627
 Alpha virt. eigenvalues --    0.57731   0.74329   0.77687   0.77687   0.88848
 Alpha virt. eigenvalues --    0.88848   0.89046   0.89046   0.94321   0.95332
 Alpha virt. eigenvalues --    1.16935   1.16935   1.27458   1.32375   1.32375
 Alpha virt. eigenvalues --    1.83922   1.83922   1.90687   2.09236   3.76317
 Alpha virt. eigenvalues --    3.76317   4.04219   4.04219   4.09552   4.44424
 Alpha virt. eigenvalues --    4.44424   4.46528   4.67819   4.67819   4.75079
 Alpha virt. eigenvalues --    4.84362   4.84362   5.33305   5.33305   6.32215
 Alpha virt. eigenvalues --   35.22604  36.14563
     Molecular Orbital Coefficients:
                           1         2         3         4         5
                       (SGG)--O  (SGU)--O  (SGG)--O  (SGU)--O  (PIU)--O
     Eigenvalues --   -14.53827 -14.53636  -1.23723  -0.64976  -0.56002
   1 1   N  1S          0.39425   0.39441  -0.09011  -0.08365   0.00000
   2        2S          0.32949   0.32920  -0.14151  -0.13577   0.00000
   3        2PX         0.00000   0.00000   0.00000   0.00000   0.00000
   4        2PY         0.00000   0.00000   0.00000   0.00000   0.20459
   5        2PZ        -0.00143  -0.00053  -0.11438   0.09681   0.00000
   6        3S          0.01008   0.01127   0.38720   0.39917   0.00000
   7        3PX         0.00000   0.00000   0.00000   0.00000   0.00000
   8        3PY         0.00000   0.00000   0.00000   0.00000   0.31011
   9        3PZ         0.00003  -0.00430  -0.14330   0.13114   0.00000
  10        4S         -0.00430   0.00063   0.16415   0.49594   0.00000
  11        4PX         0.00000   0.00000   0.00000   0.00000   0.00000
  12        4PY         0.00000   0.00000   0.00000   0.00000   0.20612
  13        4PZ         0.00120  -0.00188  -0.03160   0.04497   0.00000
  14        5S          0.00106   0.01838  -0.00586  -0.28571   0.00000
  15        5PX         0.00000   0.00000   0.00000   0.00000   0.00000
  16        5PY         0.00000   0.00000   0.00000   0.00000   0.00865
  17        5PZ        -0.00095  -0.00449   0.00629   0.08757   0.00000
  18        6D 0        0.00039   0.00096   0.01742  -0.00453   0.00000
  19        6D+1        0.00000   0.00000   0.00000   0.00000   0.00000
  20        6D-1        0.00000   0.00000   0.00000   0.00000  -0.01790
  21        6D+2        0.00000   0.00000  -0.00000   0.00000   0.00000
  22        6D-2        0.00000   0.00000   0.00000   0.00000   0.00000
  23        7D 0       -0.00123   0.00206   0.01074  -0.00504   0.00000
  24        7D+1        0.00000   0.00000   0.00000   0.00000   0.00000
  25        7D-1        0.00000   0.00000   0.00000   0.00000  -0.03504
  26        7D+2        0.00000  -0.00000  -0.00000  -0.00000   0.00000
  27        7D-2        0.00000   0.00000   0.00000   0.00000   0.00000
  28 2   N  1S          0.39425  -0.39441  -0.09011   0.08365   0.00000
  29        2S          0.32949  -0.32920  -0.14151   0.13577   0.00000
  30        2PX         0.00000   0.00000   0.00000   0.00000   0.00000
  31        2PY         0.00000   0.00000   0.00000   0.00000   0.20459
  32        2PZ         0.00143  -0.00053   0.11438   0.09681   0.00000
  33        3S          0.01008  -0.01127   0.38720  -0.39917   0.00000
  34        3PX         0.00000   0.00000   0.00000   0.00000   0.00000
  35        3PY         0.00000   0.00000   0.00000   0.00000   0.31011
  36        3PZ        -0.00003  -0.00430   0.14330   0.13114   0.00000
  37        4S         -0.00430  -0.00063   0.16415  -0.49594   0.00000
  38        4PX         0.00000   0.00000   0.00000   0.00000   0.00000
  39        4PY         0.00000   0.00000   0.00000   0.00000   0.20612
  40        4PZ        -0.00120  -0.00188   0.03160   0.04497   0.00000
  41        5S          0.00106  -0.01838  -0.00586   0.28571   0.00000
  42        5PX         0.00000   0.00000   0.00000   0.00000   0.00000
  43        5PY         0.00000   0.00000   0.00000   0.00000   0.00865
  44        5PZ         0.00095  -0.00449  -0.00629   0.08757   0.00000
  45        6D 0        0.00039  -0.00096   0.01742   0.00453   0.00000
  46        6D+1        0.00000   0.00000   0.00000   0.00000   0.00000
  47        6D-1        0.00000   0.00000   0.00000   0.00000   0.01790
  48        6D+2        0.00000  -0.00000  -0.00000  -0.00000   0.00000
  49        6D-2        0.00000   0.00000   0.00000   0.00000   0.00000
  50        7D 0       -0.00123  -0.00206   0.01074   0.00504   0.00000
  51        7D+1        0.00000   0.00000   0.00000   0.00000   0.00000
  52        7D-1        0.00000   0.00000   0.00000   0.00000   0.03504
  53        7D+2        0.00000   0.00000  -0.00000   0.00000   0.00000
  54        7D-2        0.00000   0.00000   0.00000   0.00000   0.00000
                           6         7         8         9        10
                       (PIU)--O  (SGG)--O  (PIG)--V  (PIG)--V  (SGG)--V
     Eigenvalues --    -0.56002  -0.52657   0.04922   0.04922   0.13773
   1 1   N  1S          0.00000  -0.02961   0.00000   0.00000   0.02439
   2        2S          0.00000  -0.04783   0.00000   0.00000   0.03918
   3        2PX         0.20459   0.00000   0.21199   0.00000   0.00000
   4        2PY         0.00000   0.00000   0.00000   0.21199   0.00000
   5        2PZ         0.00000   0.21880   0.00000   0.00000  -0.06016
   6        3S          0.00000   0.12929   0.00000   0.00000  -0.11822
   7        3PX         0.31011   0.00000   0.33181   0.00000   0.00000
   8        3PY         0.00000   0.00000   0.00000   0.33181   0.00000
   9        3PZ         0.00000   0.30274   0.00000   0.00000  -0.04419
  10        4S          0.00000   0.27361   0.00000   0.00000  -0.58560
  11        4PX         0.20612   0.00000   0.41839   0.00000   0.00000
  12        4PY         0.00000   0.00000   0.00000   0.41839   0.00000
  13        4PZ         0.00000   0.17310   0.00000   0.00000  -0.26976
  14        5S          0.00000   0.04392   0.00000   0.00000   0.90598
  15        5PX         0.00865   0.00000   0.48747   0.00000   0.00000
  16        5PY         0.00000   0.00000   0.00000   0.48747   0.00000
  17        5PZ         0.00000   0.00579   0.00000   0.00000   0.54134
  18        6D 0        0.00000  -0.01760   0.00000   0.00000  -0.00183
  19        6D+1       -0.01790   0.00000   0.00843   0.00000   0.00000
  20        6D-1        0.00000   0.00000   0.00000   0.00843   0.00000
  21        6D+2        0.00000  -0.00000   0.00000   0.00000   0.00000
  22        6D-2        0.00000   0.00000   0.00000   0.00000   0.00000
  23        7D 0        0.00000  -0.00879   0.00000   0.00000   0.02145
  24        7D+1       -0.03504   0.00000   0.02682   0.00000   0.00000
  25        7D-1        0.00000   0.00000   0.00000   0.02682   0.00000
  26        7D+2        0.00000  -0.00000   0.00000   0.00000   0.00000
  27        7D-2        0.00000   0.00000   0.00000   0.00000   0.00000
  28 2   N  1S          0.00000  -0.02961   0.00000   0.00000   0.02439
  29        2S          0.00000  -0.04783   0.00000   0.00000   0.03918
  30        2PX         0.20459   0.00000  -0.21199   0.00000   0.00000
  31        2PY         0.00000   0.00000   0.00000  -0.21199   0.00000
  32        2PZ         0.00000  -0.21880   0.00000   0.00000   0.06016
  33        3S          0.00000   0.12929   0.00000   0.00000  -0.11822
  34        3PX         0.31011   0.00000  -0.33181   0.00000   0.00000
  35        3PY         0.00000   0.00000   0.00000  -0.33181   0.00000
  36        3PZ         0.00000  -0.30274   0.00000   0.00000   0.04419
  37        4S          0.00000   0.27361   0.00000   0.00000  -0.58560
  38        4PX         0.20612   0.00000  -0.41839   0.00000   0.00000
  39        4PY         0.00000   0.00000   0.00000  -0.41839   0.00000
  40        4PZ         0.00000  -0.17310   0.00000   0.00000   0.26976
  41        5S          0.00000   0.04392   0.00000   0.00000   0.90598
  42        5PX         0.00865   0.00000  -0.48747   0.00000   0.00000
  43        5PY         0.00000   0.00000   0.00000  -0.48747   0.00000
  44        5PZ         0.00000  -0.00579   0.00000   0.00000  -0.54134
  45        6D 0        0.00000  -0.01760   0.00000   0.00000  -0.00183
  46        6D+1        0.01790   0.00000   0.00843   0.00000   0.00000
  47        6D-1        0.00000   0.00000   0.00000   0.00843   0.00000
  48        6D+2        0.00000  -0.00000   0.00000   0.00000   0.00000
  49        6D-2        0.00000   0.00000   0.00000   0.00000   0.00000
  50        7D 0        0.00000  -0.00879   0.00000   0.00000   0.02145
  51        7D+1        0.03504   0.00000   0.02682   0.00000   0.00000
  52        7D-1        0.00000   0.00000   0.00000   0.02682   0.00000
  53        7D+2        0.00000  -0.00000   0.00000   0.00000   0.00000
  54        7D-2        0.00000   0.00000   0.00000   0.00000   0.00000
                          11        12        13        14        15
                       (SGU)--V  (PIU)--V  (PIU)--V  (SGG)--V  (PIG)--V
     Eigenvalues --     0.13978   0.16060   0.16060   0.21172   0.23473
   1 1   N  1S         -0.02002   0.00000   0.00000  -0.01377   0.00000
   2        2S         -0.03318   0.00000   0.00000  -0.02103   0.00000
   3        2PX         0.00000  -0.06968   0.00000   0.00000   0.00000
   4        2PY         0.00000   0.00000  -0.06968   0.00000  -0.11301
   5        2PZ         0.01170   0.00000   0.00000  -0.01888   0.00000
   6        3S          0.12674   0.00000   0.00000   0.02704   0.00000
   7        3PX         0.00000  -0.06246   0.00000   0.00000   0.00000
   8        3PY         0.00000   0.00000  -0.06246   0.00000  -0.13803
   9        3PZ         0.07233   0.00000   0.00000   0.00165   0.00000
  10        4S         -1.05615   0.00000   0.00000   0.45417   0.00000
  11        4PX         0.00000  -0.25568   0.00000   0.00000   0.00000
  12        4PY         0.00000   0.00000  -0.25568   0.00000  -0.59679
  13        4PZ         0.73550   0.00000   0.00000  -0.06896   0.00000
  14        5S         15.38838   0.00000   0.00000  -0.11163   0.00000
  15        5PX         0.00000   0.64514   0.00000   0.00000   0.00000
  16        5PY         0.00000   0.00000   0.64514   0.00000   2.26880
  17        5PZ        -4.87254   0.00000   0.00000   1.53059   0.00000
  18        6D 0       -0.00036   0.00000   0.00000   0.01019   0.00000
  19        6D+1        0.00000   0.00809   0.00000   0.00000   0.00000
  20        6D-1        0.00000   0.00000   0.00809   0.00000  -0.00589
  21        6D+2        0.00000   0.00000   0.00000   0.00000   0.00000
  22        6D-2        0.00000   0.00000   0.00000   0.00000   0.00000
  23        7D 0       -0.09767   0.00000   0.00000   0.03284   0.00000
  24        7D+1        0.00000   0.01288   0.00000   0.00000   0.00000
  25        7D-1        0.00000   0.00000   0.01288   0.00000   0.04828
  26        7D+2       -0.00000   0.00000   0.00000   0.00000   0.00000
  27        7D-2        0.00000   0.00000   0.00000   0.00000   0.00000
  28 2   N  1S          0.02002   0.00000   0.00000  -0.01377   0.00000
  29        2S          0.03318   0.00000   0.00000  -0.02103   0.00000
  30        2PX         0.00000  -0.06968   0.00000   0.00000   0.00000
  31        2PY         0.00000   0.00000  -0.06968   0.00000   0.11301
  32        2PZ         0.01170   0.00000   0.00000   0.01888   0.00000
  33        3S         -0.12674   0.00000   0.00000   0.02704   0.00000
  34        3PX         0.00000  -0.06246   0.00000   0.00000   0.00000
  35        3PY         0.00000   0.00000  -0.06246   0.00000   0.13803
  36        3PZ         0.07233   0.00000   0.00000  -0.00165   0.00000
  37        4S          1.05615   0.00000   0.00000   0.45417   0.00000
  38        4PX         0.00000  -0.25568   0.00000   0.00000   0.00000
  39        4PY         0.00000   0.00000  -0.25568   0.00000   0.59679
  40        4PZ         0.73550   0.00000   0.00000   0.06896   0.00000
  41        5S        -15.38838   0.00000   0.00000  -0.11163   0.00000
  42        5PX         0.00000   0.64514   0.00000   0.00000   0.00000
  43        5PY         0.00000   0.00000   0.64514   0.00000  -2.26880
  44        5PZ        -4.87254   0.00000   0.00000  -1.53059   0.00000
  45        6D 0        0.00036   0.00000   0.00000   0.01019   0.00000
  46        6D+1        0.00000  -0.00809   0.00000   0.00000   0.00000
  47        6D-1        0.00000   0.00000  -0.00809   0.00000  -0.00589
  48        6D+2       -0.00000   0.00000   0.00000   0.00000   0.00000
  49        6D-2        0.00000   0.00000   0.00000   0.00000   0.00000
  50        7D 0        0.09767   0.00000   0.00000   0.03284   0.00000
  51        7D+1        0.00000  -0.01288   0.00000   0.00000   0.00000
  52        7D-1        0.00000   0.00000  -0.01288   0.00000   0.04828
  53        7D+2        0.00000   0.00000   0.00000   0.00000   0.00000
  54        7D-2        0.00000   0.00000   0.00000   0.00000   0.00000
                          16        17        18        19        20
                       (PIG)--V  (SGU)--V  (SGU)--V  (SGG)--V  (PIU)--V
     Eigenvalues --     0.23473   0.32627   0.57731   0.74329   0.77687
   1 1   N  1S          0.00000   0.01909  -0.04803  -0.00289   0.00000
   2        2S          0.00000   0.03048  -0.08360  -0.01162   0.00000
   3        2PX        -0.11301   0.00000   0.00000   0.00000   0.00000
   4        2PY         0.00000   0.00000   0.00000   0.00000  -0.15068
   5        2PZ         0.00000  -0.03940  -0.08246  -0.11542   0.00000
   6        3S          0.00000  -0.05227   0.22026   0.27637   0.00000
   7        3PX        -0.13803   0.00000   0.00000   0.00000   0.00000
   8        3PY         0.00000   0.00000   0.00000   0.00000  -0.55324
   9        3PZ         0.00000   0.02445  -0.30953  -0.44570   0.00000
  10        4S          0.00000  -0.89230   6.81674  -0.02002   0.00000
  11        4PX        -0.59679   0.00000   0.00000   0.00000   0.00000
  12        4PY         0.00000   0.00000   0.00000   0.00000   0.98450
  13        4PZ         0.00000  -0.26172  -4.19129   1.32767   0.00000
  14        5S          0.00000  39.67126  -3.77065  -0.13571   0.00000
  15        5PX         2.26880   0.00000   0.00000   0.00000   0.00000
  16        5PY         0.00000   0.00000   0.00000   0.00000  -0.43633
  17        5PZ         0.00000 -10.42167   1.47078  -1.00710   0.00000
  18        6D 0        0.00000  -0.00405  -0.03261   0.03816   0.00000
  19        6D+1       -0.00589   0.00000   0.00000   0.00000   0.00000
  20        6D-1        0.00000   0.00000   0.00000   0.00000   0.01702
  21        6D+2        0.00000   0.00000   0.00000   0.00000   0.00000
  22        6D-2        0.00000   0.00000   0.00000   0.00000   0.00000
  23        7D 0        0.00000  -0.02268   0.22120   0.00861   0.00000
  24        7D+1        0.04828   0.00000   0.00000   0.00000   0.00000
  25        7D-1        0.00000   0.00000   0.00000   0.00000   0.13551
  26        7D+2        0.00000  -0.00000  -0.00000  -0.00000   0.00000
  27        7D-2        0.00000   0.00000   0.00000   0.00000   0.00000
  28 2   N  1S          0.00000  -0.01909   0.04803  -0.00289   0.00000
  29        2S          0.00000  -0.03048   0.08360  -0.01162   0.00000
  30        2PX         0.11301   0.00000   0.00000   0.00000   0.00000
  31        2PY         0.00000   0.00000   0.00000   0.00000  -0.15068
  32        2PZ         0.00000  -0.03940  -0.08246   0.11542   0.00000
  33        3S          0.00000   0.05227  -0.22026   0.27637   0.00000
  34        3PX         0.13803   0.00000   0.00000   0.00000   0.00000
  35        3PY         0.00000   0.00000   0.00000   0.00000  -0.55324
  36        3PZ         0.00000   0.02445  -0.30953   0.44570   0.00000
  37        4S          0.00000   0.89230  -6.81674  -0.02002   0.00000
  38        4PX         0.59679   0.00000   0.00000   0.00000   0.00000
  39        4PY         0.00000   0.00000   0.00000   0.00000   0.98450
  40        4PZ         0.00000  -0.26172  -4.19129  -1.32767   0.00000
  41        5S          0.00000 -39.67126   3.77065  -0.13571   0.00000
  42        5PX        -2.26880   0.00000   0.00000   0.00000   0.00000
  43        5PY         0.00000   0.00000   0.00000   0.00000  -0.43633
  44        5PZ         0.00000 -10.42167   1.47078   1.00710   0.00000
  45        6D 0        0.00000   0.00405   0.03261   0.03816   0.00000
  46        6D+1       -0.00589   0.00000   0.00000   0.00000   0.00000
  47        6D-1        0.00000   0.00000   0.00000   0.00000  -0.01702
  48        6D+2        0.00000  -0.00000  -0.00000   0.00000   0.00000
  49        6D-2        0.00000   0.00000   0.00000   0.00000   0.00000
  50        7D 0        0.00000   0.02268  -0.22120   0.00861   0.00000
  51        7D+1        0.04828   0.00000   0.00000   0.00000   0.00000
  52        7D-1        0.00000   0.00000   0.00000   0.00000  -0.13551
  53        7D+2        0.00000   0.00000   0.00000  -0.00000   0.00000
  54        7D-2        0.00000   0.00000   0.00000   0.00000   0.00000
                          21        22        23        24        25
                       (PIU)--V  (PIG)--V  (PIG)--V  (DLTG)--  (DLTG)--
     Eigenvalues --     0.77687   0.88848   0.88848   0.89046   0.89046
   1 1   N  1S          0.00000   0.00000   0.00000   0.00000  -0.00000
   2        2S          0.00000   0.00000   0.00000   0.00000  -0.00000
   3        2PX        -0.15068   0.00000  -0.19056   0.00000   0.00000
   4        2PY         0.00000  -0.19056   0.00000   0.00000   0.00000
   5        2PZ         0.00000   0.00000   0.00000   0.00000   0.00000
   6        3S          0.00000   0.00000   0.00000   0.00000   0.00000
   7        3PX        -0.55324   0.00000  -0.58371   0.00000   0.00000
   8        3PY         0.00000  -0.58371   0.00000   0.00000   0.00000
   9        3PZ         0.00000   0.00000   0.00000   0.00000   0.00000
  10        4S          0.00000   0.00000   0.00000   0.00000  -0.00000
  11        4PX         0.98450   0.00000   1.90105   0.00000   0.00000
  12        4PY         0.00000   1.90105   0.00000   0.00000   0.00000
  13        4PZ         0.00000   0.00000   0.00000   0.00000  -0.00000
  14        5S          0.00000   0.00000   0.00000   0.00000   0.00000
  15        5PX        -0.43633   0.00000  -1.24079   0.00000   0.00000
  16        5PY         0.00000  -1.24079   0.00000   0.00000   0.00000
  17        5PZ         0.00000   0.00000   0.00000   0.00000  -0.00000
  18        6D 0        0.00000   0.00000   0.00000   0.00000   0.00000
  19        6D+1        0.01702   0.00000   0.01656   0.00000   0.00000
  20        6D-1        0.00000   0.01656   0.00000   0.00000   0.00000
  21        6D+2        0.00000   0.00000   0.00000   0.00000   0.01102
  22        6D-2        0.00000   0.00000   0.00000   0.01102   0.00000
  23        7D 0        0.00000   0.00000   0.00000   0.00000   0.00000
  24        7D+1        0.13551   0.00000  -0.19591   0.00000   0.00000
  25        7D-1        0.00000  -0.19591   0.00000   0.00000   0.00000
  26        7D+2        0.00000   0.00000   0.00000   0.00000   0.59780
  27        7D-2        0.00000   0.00000   0.00000   0.59780   0.00000
  28 2   N  1S          0.00000   0.00000   0.00000   0.00000  -0.00000
  29        2S          0.00000   0.00000   0.00000   0.00000  -0.00000
  30        2PX        -0.15068   0.00000   0.19056   0.00000   0.00000
  31        2PY         0.00000   0.19056   0.00000   0.00000   0.00000
  32        2PZ         0.00000   0.00000   0.00000   0.00000  -0.00000
  33        3S          0.00000   0.00000   0.00000   0.00000   0.00000
  34        3PX        -0.55324   0.00000   0.58371   0.00000   0.00000
  35        3PY         0.00000   0.58371   0.00000   0.00000   0.00000
  36        3PZ         0.00000   0.00000   0.00000   0.00000  -0.00000
  37        4S          0.00000   0.00000   0.00000   0.00000  -0.00000
  38        4PX         0.98450   0.00000  -1.90105   0.00000   0.00000
  39        4PY         0.00000  -1.90105   0.00000   0.00000   0.00000
  40        4PZ         0.00000   0.00000   0.00000   0.00000   0.00000
  41        5S          0.00000   0.00000   0.00000   0.00000   0.00000
  42        5PX        -0.43633   0.00000   1.24079   0.00000   0.00000
  43        5PY         0.00000   1.24079   0.00000   0.00000   0.00000
  44        5PZ         0.00000   0.00000   0.00000   0.00000   0.00000
  45        6D 0        0.00000   0.00000   0.00000   0.00000   0.00000
  46        6D+1       -0.01702   0.00000   0.01656   0.00000   0.00000
  47        6D-1        0.00000   0.01656   0.00000   0.00000   0.00000
  48        6D+2        0.00000   0.00000   0.00000   0.00000   0.01102
  49        6D-2        0.00000   0.00000   0.00000   0.01102   0.00000
  50        7D 0        0.00000   0.00000   0.00000   0.00000   0.00000
  51        7D+1       -0.13551   0.00000  -0.19591   0.00000   0.00000
  52        7D-1        0.00000  -0.19591   0.00000   0.00000   0.00000
  53        7D+2        0.00000   0.00000   0.00000   0.00000   0.59780
  54        7D-2        0.00000   0.00000   0.00000   0.59780   0.00000
                          26        27        28        29        30
                       (SGU)--V  (SGG)--V  (PIU)--V  (PIU)--V  (SGU)--V
     Eigenvalues --     0.94321   0.95332   1.16935   1.16935   1.27458
   1 1   N  1S          0.01207   0.07722   0.00000   0.00000  -0.08663
   2        2S          0.01604   0.15290   0.00000   0.00000  -0.16921
   3        2PX         0.00000   0.00000   0.00000   0.08493   0.00000
   4        2PY         0.00000   0.00000   0.08493   0.00000   0.00000
   5        2PZ         0.29777  -0.05983   0.00000   0.00000  -0.08453
   6        3S          0.05278  -1.04083   0.00000   0.00000   1.40338
   7        3PX         0.00000   0.00000   0.00000   0.33949   0.00000
   8        3PY         0.00000   0.00000   0.33949   0.00000   0.00000
   9        3PZ         0.43972  -0.25275   0.00000   0.00000   0.51392
  10        4S          4.13946   1.59071   0.00000   0.00000 -10.51253
  11        4PX         0.00000   0.00000   0.00000  -0.12456   0.00000
  12        4PY         0.00000   0.00000  -0.12456   0.00000   0.00000
  13        4PZ        -3.10045   0.42421   0.00000   0.00000   4.24807
  14        5S          5.72043  -0.64336   0.00000   0.00000  18.76575
  15        5PX         0.00000   0.00000   0.00000   0.02021   0.00000
  16        5PY         0.00000   0.00000   0.02021   0.00000   0.00000
  17        5PZ        -1.13301   0.19314   0.00000   0.00000  -4.95652
  18        6D 0        0.01255  -0.00873   0.00000   0.00000  -0.02021
  19        6D+1        0.00000   0.00000   0.00000   0.01998   0.00000
  20        6D-1        0.00000   0.00000   0.01998   0.00000   0.00000
  21        6D+2       -0.00000  -0.00000   0.00000   0.00000   0.00000
  22        6D-2        0.00000   0.00000   0.00000   0.00000   0.00000
  23        7D 0        0.53563  -0.27646   0.00000   0.00000  -0.56879
  24        7D+1        0.00000   0.00000   0.00000   0.62734   0.00000
  25        7D-1        0.00000   0.00000   0.62734   0.00000   0.00000
  26        7D+2       -0.00000   0.00000   0.00000   0.00000  -0.00000
  27        7D-2        0.00000   0.00000   0.00000   0.00000   0.00000
  28 2   N  1S         -0.01207   0.07722   0.00000   0.00000   0.08663
  29        2S         -0.01604   0.15290   0.00000   0.00000   0.16921
  30        2PX         0.00000   0.00000   0.00000   0.08493   0.00000
  31        2PY         0.00000   0.00000   0.08493   0.00000   0.00000
  32        2PZ         0.29777   0.05983   0.00000   0.00000  -0.08453
  33        3S         -0.05278  -1.04083   0.00000   0.00000  -1.40338
  34        3PX         0.00000   0.00000   0.00000   0.33949   0.00000
  35        3PY         0.00000   0.00000   0.33949   0.00000   0.00000
  36        3PZ         0.43972   0.25275   0.00000   0.00000   0.51392
  37        4S         -4.13946   1.59071   0.00000   0.00000  10.51253
  38        4PX         0.00000   0.00000   0.00000  -0.12456   0.00000
  39        4PY         0.00000   0.00000  -0.12456   0.00000   0.00000
  40        4PZ        -3.10045  -0.42421   0.00000   0.00000   4.24807
  41        5S         -5.72043  -0.64336   0.00000   0.00000 -18.76575
  42        5PX         0.00000   0.00000   0.00000   0.02021   0.00000
  43        5PY         0.00000   0.00000   0.02021   0.00000   0.00000
  44        5PZ        -1.13301  -0.19314   0.00000   0.00000  -4.95652
  45        6D 0       -0.01255  -0.00873   0.00000   0.00000   0.02021
  46        6D+1        0.00000   0.00000   0.00000  -0.01998   0.00000
  47        6D-1        0.00000   0.00000  -0.01998   0.00000   0.00000
  48        6D+2        0.00000  -0.00000   0.00000   0.00000  -0.00000
  49        6D-2        0.00000   0.00000   0.00000   0.00000   0.00000
  50        7D 0       -0.53563  -0.27646   0.00000   0.00000   0.56879
  51        7D+1        0.00000   0.00000   0.00000  -0.62734   0.00000
  52        7D-1        0.00000   0.00000  -0.62734   0.00000   0.00000
  53        7D+2        0.00000   0.00000   0.00000   0.00000   0.00000
  54        7D-2        0.00000   0.00000   0.00000   0.00000   0.00000
                          31        32        33        34        35
                       (DLTU)--  (DLTU)--  (PIG)--V  (PIG)--V  (SGG)--V
     Eigenvalues --     1.32375   1.32375   1.83922   1.83922   1.90687
   1 1   N  1S          0.00000  -0.00000   0.00000   0.00000  -0.03902
   2        2S          0.00000  -0.00000   0.00000   0.00000  -0.10199
   3        2PX         0.00000   0.00000  -0.08567   0.00000   0.00000
   4        2PY         0.00000   0.00000   0.00000  -0.08567   0.00000
   5        2PZ         0.00000  -0.00000   0.00000   0.00000   0.04884
   6        3S          0.00000   0.00000   0.00000   0.00000   1.68008
   7        3PX         0.00000   0.00000  -0.39099   0.00000   0.00000
   8        3PY         0.00000   0.00000   0.00000  -0.39099   0.00000
   9        3PZ         0.00000   0.00000   0.00000   0.00000  -0.52856
  10        4S          0.00000  -0.00000   0.00000   0.00000  -0.71687
  11        4PX         0.00000   0.00000  -1.61823   0.00000   0.00000
  12        4PY         0.00000   0.00000   0.00000  -1.61823   0.00000
  13        4PZ         0.00000   0.00000   0.00000   0.00000   1.40883
  14        5S          0.00000   0.00000   0.00000   0.00000  -0.00978
  15        5PX         0.00000   0.00000   0.46825   0.00000   0.00000
  16        5PY         0.00000   0.00000   0.00000   0.46825   0.00000
  17        5PZ         0.00000  -0.00000   0.00000   0.00000  -0.40910
  18        6D 0        0.00000  -0.00000   0.00000   0.00000   0.00838
  19        6D+1        0.00000   0.00000  -0.00701   0.00000   0.00000
  20        6D-1        0.00000   0.00000   0.00000  -0.00701   0.00000
  21        6D+2        0.00000   0.00433   0.00000   0.00000  -0.00000
  22        6D-2        0.00433   0.00000   0.00000   0.00000   0.00000
  23        7D 0        0.00000  -0.00000   0.00000   0.00000  -1.36503
  24        7D+1        0.00000   0.00000   1.71649   0.00000   0.00000
  25        7D-1        0.00000   0.00000   0.00000   1.71649   0.00000
  26        7D+2        0.00000   0.89430   0.00000   0.00000   0.00000
  27        7D-2        0.89430   0.00000   0.00000   0.00000   0.00000
  28 2   N  1S          0.00000   0.00000   0.00000   0.00000  -0.03902
  29        2S          0.00000   0.00000   0.00000   0.00000  -0.10199
  30        2PX         0.00000   0.00000   0.08567   0.00000   0.00000
  31        2PY         0.00000   0.00000   0.00000   0.08567   0.00000
  32        2PZ         0.00000  -0.00000   0.00000   0.00000  -0.04884
  33        3S          0.00000  -0.00000   0.00000   0.00000   1.68008
  34        3PX         0.00000   0.00000   0.39099   0.00000   0.00000
  35        3PY         0.00000   0.00000   0.00000   0.39099   0.00000
  36        3PZ         0.00000   0.00000   0.00000   0.00000   0.52856
  37        4S          0.00000   0.00000   0.00000   0.00000  -0.71687
  38        4PX         0.00000   0.00000   1.61823   0.00000   0.00000
  39        4PY         0.00000   0.00000   0.00000   1.61823   0.00000
  40        4PZ         0.00000   0.00000   0.00000   0.00000  -1.40883
  41        5S          0.00000  -0.00000   0.00000   0.00000  -0.00978
  42        5PX         0.00000   0.00000  -0.46825   0.00000   0.00000
  43        5PY         0.00000   0.00000   0.00000  -0.46825   0.00000
  44        5PZ         0.00000  -0.00000   0.00000   0.00000   0.40910
  45        6D 0        0.00000   0.00000   0.00000   0.00000   0.00838
  46        6D+1        0.00000   0.00000  -0.00701   0.00000   0.00000
  47        6D-1        0.00000   0.00000   0.00000  -0.00701   0.00000
  48        6D+2        0.00000  -0.00433   0.00000   0.00000  -0.00000
  49        6D-2       -0.00433   0.00000   0.00000   0.00000   0.00000
  50        7D 0        0.00000   0.00000   0.00000   0.00000  -1.36503
  51        7D+1        0.00000   0.00000   1.71649   0.00000   0.00000
  52        7D-1        0.00000   0.00000   0.00000   1.71649   0.00000
  53        7D+2        0.00000  -0.89430   0.00000   0.00000   0.00000
  54        7D-2       -0.89430   0.00000   0.00000   0.00000   0.00000
                          36        37        38        39        40
                       (SGU)--V  (PIU)--V  (PIU)--V  (PIG)--V  (PIG)--V
     Eigenvalues --     2.09236   3.76317   3.76317   4.04219   4.04219
   1 1   N  1S         -0.04356   0.00000   0.00000   0.00000   0.00000
   2        2S         -0.09910   0.00000   0.00000   0.00000   0.00000
   3        2PX         0.00000  -0.91038   0.00000   0.00000  -0.93223
   4        2PY         0.00000   0.00000  -0.91038  -0.93223   0.00000
   5        2PZ        -0.27186   0.00000   0.00000   0.00000   0.00000
   6        3S          0.80858   0.00000   0.00000   0.00000   0.00000
   7        3PX         0.00000   1.04305   0.00000   0.00000   1.34383
   8        3PY         0.00000   0.00000   1.04305   1.34383   0.00000
   9        3PZ        -1.39794   0.00000   0.00000   0.00000   0.00000
  10        4S         10.27075   0.00000   0.00000   0.00000   0.00000
  11        4PX         0.00000  -0.50077   0.00000   0.00000  -0.45206
  12        4PY         0.00000   0.00000  -0.50077  -0.45206   0.00000
  13        4PZ        -5.14035   0.00000   0.00000   0.00000   0.00000
  14        5S         -3.82020   0.00000   0.00000   0.00000   0.00000
  15        5PX         0.00000   0.15499   0.00000   0.00000   0.33806
  16        5PY         0.00000   0.00000   0.15499   0.33806   0.00000
  17        5PZ         1.24292   0.00000   0.00000   0.00000   0.00000
  18        6D 0       -0.00920   0.00000   0.00000   0.00000   0.00000
  19        6D+1        0.00000  -0.08872   0.00000   0.00000   0.04939
  20        6D-1        0.00000   0.00000  -0.08872   0.04939   0.00000
  21        6D+2       -0.00000   0.00000   0.00000   0.00000   0.00000
  22        6D-2        0.00000   0.00000   0.00000   0.00000   0.00000
  23        7D 0        1.77467   0.00000   0.00000   0.00000   0.00000
  24        7D+1        0.00000   0.12403   0.00000   0.00000  -0.45898
  25        7D-1        0.00000   0.00000   0.12403  -0.45898   0.00000
  26        7D+2        0.00000   0.00000   0.00000   0.00000   0.00000
  27        7D-2        0.00000   0.00000   0.00000   0.00000   0.00000
  28 2   N  1S          0.04356   0.00000   0.00000   0.00000   0.00000
  29        2S          0.09910   0.00000   0.00000   0.00000   0.00000
  30        2PX         0.00000  -0.91038   0.00000   0.00000   0.93223
  31        2PY         0.00000   0.00000  -0.91038   0.93223   0.00000
  32        2PZ        -0.27186   0.00000   0.00000   0.00000   0.00000
  33        3S         -0.80858   0.00000   0.00000   0.00000   0.00000
  34        3PX         0.00000   1.04305   0.00000   0.00000  -1.34383
  35        3PY         0.00000   0.00000   1.04305  -1.34383   0.00000
  36        3PZ        -1.39794   0.00000   0.00000   0.00000   0.00000
  37        4S        -10.27075   0.00000   0.00000   0.00000   0.00000
  38        4PX         0.00000  -0.50077   0.00000   0.00000   0.45206
  39        4PY         0.00000   0.00000  -0.50077   0.45206   0.00000
  40        4PZ        -5.14035   0.00000   0.00000   0.00000   0.00000
  41        5S          3.82020   0.00000   0.00000   0.00000   0.00000
  42        5PX         0.00000   0.15499   0.00000   0.00000  -0.33806
  43        5PY         0.00000   0.00000   0.15499  -0.33806   0.00000
  44        5PZ         1.24292   0.00000   0.00000   0.00000   0.00000
  45        6D 0        0.00920   0.00000   0.00000   0.00000   0.00000
  46        6D+1        0.00000   0.08872   0.00000   0.00000   0.04939
  47        6D-1        0.00000   0.00000   0.08872   0.04939   0.00000
  48        6D+2        0.00000   0.00000   0.00000   0.00000   0.00000
  49        6D-2        0.00000   0.00000   0.00000   0.00000   0.00000
  50        7D 0       -1.77467   0.00000   0.00000   0.00000   0.00000
  51        7D+1        0.00000  -0.12403   0.00000   0.00000  -0.45898
  52        7D-1        0.00000   0.00000  -0.12403  -0.45898   0.00000
  53        7D+2       -0.00000   0.00000   0.00000   0.00000   0.00000
  54        7D-2        0.00000   0.00000   0.00000   0.00000   0.00000
                          41        42        43        44        45
                       (SGG)--V  (PIU)--V  (PIU)--V  (SGG)--V  (DLTG)--
     Eigenvalues --     4.09552   4.44424   4.44424   4.46528   4.67819
   1 1   N  1S         -0.00344   0.00000   0.00000   0.00627  -0.00000
   2        2S          0.01311   0.00000   0.00000   0.01382  -0.00000
   3        2PX         0.00000   0.00000  -0.12095   0.00000   0.00000
   4        2PY         0.00000  -0.12095   0.00000   0.00000   0.00000
   5        2PZ         0.78261   0.00000   0.00000   0.57758  -0.00000
   6        3S         -0.53995   0.00000   0.00000   0.18474   0.00000
   7        3PX         0.00000   0.00000   0.11051   0.00000   0.00000
   8        3PY         0.00000   0.11051   0.00000   0.00000   0.00000
   9        3PZ        -0.76011   0.00000   0.00000  -0.59551   0.00000
  10        4S          0.23793   0.00000   0.00000   0.12160  -0.00000
  11        4PX         0.00000   0.00000  -0.14454   0.00000   0.00000
  12        4PY         0.00000  -0.14454   0.00000   0.00000   0.00000
  13        4PZ         0.15516   0.00000   0.00000   0.58583  -0.00000
  14        5S         -0.03735   0.00000   0.00000  -0.12318   0.00000
  15        5PX         0.00000   0.00000   0.05988   0.00000   0.00000
  16        5PY         0.00000   0.05988   0.00000   0.00000   0.00000
  17        5PZ        -0.22650   0.00000   0.00000  -0.12641   0.00000
  18        6D 0       -0.46460   0.00000   0.00000   0.60266  -0.00000
  19        6D+1        0.00000   0.00000   0.78392   0.00000   0.00000
  20        6D-1        0.00000   0.78392   0.00000   0.00000   0.00000
  21        6D+2        0.00000   0.00000   0.00000   0.00000   0.79183
  22        6D-2        0.00000   0.00000   0.00000   0.00000   0.00000
  23        7D 0        0.59644   0.00000   0.00000  -0.51534  -0.00000
  24        7D+1        0.00000   0.00000  -0.42336   0.00000   0.00000
  25        7D-1        0.00000  -0.42336   0.00000   0.00000   0.00000
  26        7D+2       -0.00000   0.00000   0.00000  -0.00000  -0.32701
  27        7D-2        0.00000   0.00000   0.00000   0.00000   0.00000
  28 2   N  1S         -0.00344   0.00000   0.00000   0.00627  -0.00000
  29        2S          0.01311   0.00000   0.00000   0.01382  -0.00000
  30        2PX         0.00000   0.00000  -0.12095   0.00000   0.00000
  31        2PY         0.00000  -0.12095   0.00000   0.00000   0.00000
  32        2PZ        -0.78261   0.00000   0.00000  -0.57758   0.00000
  33        3S         -0.53995   0.00000   0.00000   0.18474   0.00000
  34        3PX         0.00000   0.00000   0.11051   0.00000   0.00000
  35        3PY         0.00000   0.11051   0.00000   0.00000   0.00000
  36        3PZ         0.76011   0.00000   0.00000   0.59551  -0.00000
  37        4S          0.23793   0.00000   0.00000   0.12160  -0.00000
  38        4PX         0.00000   0.00000  -0.14454   0.00000   0.00000
  39        4PY         0.00000  -0.14454   0.00000   0.00000   0.00000
  40        4PZ        -0.15516   0.00000   0.00000  -0.58583   0.00000
  41        5S         -0.03735   0.00000   0.00000  -0.12318   0.00000
  42        5PX         0.00000   0.00000   0.05988   0.00000   0.00000
  43        5PY         0.00000   0.05988   0.00000   0.00000   0.00000
  44        5PZ         0.22650   0.00000   0.00000   0.12641  -0.00000
  45        6D 0       -0.46460   0.00000   0.00000   0.60266  -0.00000
  46        6D+1        0.00000   0.00000  -0.78392   0.00000   0.00000
  47        6D-1        0.00000  -0.78392   0.00000   0.00000   0.00000
  48        6D+2        0.00000   0.00000   0.00000   0.00000   0.79183
  49        6D-2        0.00000   0.00000   0.00000   0.00000   0.00000
  50        7D 0        0.59644   0.00000   0.00000  -0.51534  -0.00000
  51        7D+1        0.00000   0.00000   0.42336   0.00000   0.00000
  52        7D-1        0.00000   0.42336   0.00000   0.00000   0.00000
  53        7D+2       -0.00000   0.00000   0.00000  -0.00000  -0.32701
  54        7D-2        0.00000   0.00000   0.00000   0.00000   0.00000
                          46        47        48        49        50
                       (DLTG)--  (SGU)--V  (DLTU)--  (DLTU)--  (PIG)--V
     Eigenvalues --     4.67819   4.75079   4.84362   4.84362   5.33305
   1 1   N  1S          0.00000  -0.04247  -0.00000   0.00000   0.00000
   2        2S          0.00000  -0.09652  -0.00000   0.00000   0.00000
   3        2PX         0.00000   0.00000   0.00000   0.00000   0.00000
   4        2PY         0.00000   0.00000   0.00000   0.00000   0.06617
   5        2PZ         0.00000   0.95754   0.00000   0.00000   0.00000
   6        3S          0.00000   0.90385   0.00000   0.00000   0.00000
   7        3PX         0.00000   0.00000   0.00000   0.00000   0.00000
   8        3PY         0.00000   0.00000   0.00000   0.00000   0.00381
   9        3PZ         0.00000  -2.98794  -0.00000   0.00000   0.00000
  10        4S          0.00000   8.62845   0.00000   0.00000   0.00000
  11        4PX         0.00000   0.00000   0.00000   0.00000   0.00000
  12        4PY         0.00000   0.00000   0.00000   0.00000   0.66247
  13        4PZ         0.00000  -3.50434  -0.00000   0.00000   0.00000
  14        5S          0.00000  -8.21170  -0.00000   0.00000   0.00000
  15        5PX         0.00000   0.00000   0.00000   0.00000   0.00000
  16        5PY         0.00000   0.00000   0.00000   0.00000  -0.20159
  17        5PZ         0.00000   2.19379   0.00000   0.00000   0.00000
  18        6D 0        0.00000  -0.14029  -0.00000   0.00000   0.00000
  19        6D+1        0.00000   0.00000   0.00000   0.00000   0.00000
  20        6D-1        0.00000   0.00000   0.00000   0.00000   0.84618
  21        6D+2        0.00000  -0.00000   0.80603   0.00000   0.00000
  22        6D-2        0.79183   0.00000   0.00000   0.80603   0.00000
  23        7D 0        0.00000   1.48541   0.00000   0.00000   0.00000
  24        7D+1        0.00000   0.00000   0.00000   0.00000   0.00000
  25        7D-1        0.00000   0.00000   0.00000   0.00000  -0.73678
  26        7D+2        0.00000   0.00000  -0.47320   0.00000   0.00000
  27        7D-2       -0.32701   0.00000   0.00000  -0.47320   0.00000
  28 2   N  1S          0.00000   0.04247   0.00000   0.00000   0.00000
  29        2S          0.00000   0.09652   0.00000   0.00000   0.00000
  30        2PX         0.00000   0.00000   0.00000   0.00000   0.00000
  31        2PY         0.00000   0.00000   0.00000   0.00000  -0.06617
  32        2PZ         0.00000   0.95754   0.00000   0.00000   0.00000
  33        3S          0.00000  -0.90385  -0.00000   0.00000   0.00000
  34        3PX         0.00000   0.00000   0.00000   0.00000   0.00000
  35        3PY         0.00000   0.00000   0.00000   0.00000  -0.00381
  36        3PZ         0.00000  -2.98794  -0.00000   0.00000   0.00000
  37        4S          0.00000  -8.62845  -0.00000   0.00000   0.00000
  38        4PX         0.00000   0.00000   0.00000   0.00000   0.00000
  39        4PY         0.00000   0.00000   0.00000   0.00000  -0.66247
  40        4PZ         0.00000  -3.50434  -0.00000   0.00000   0.00000
  41        5S          0.00000   8.21170   0.00000   0.00000   0.00000
  42        5PX         0.00000   0.00000   0.00000   0.00000   0.00000
  43        5PY         0.00000   0.00000   0.00000   0.00000   0.20159
  44        5PZ         0.00000   2.19379   0.00000   0.00000   0.00000
  45        6D 0        0.00000   0.14029   0.00000   0.00000   0.00000
  46        6D+1        0.00000   0.00000   0.00000   0.00000   0.00000
  47        6D-1        0.00000   0.00000   0.00000   0.00000   0.84618
  48        6D+2        0.00000   0.00000  -0.80603   0.00000   0.00000
  49        6D-2        0.79183   0.00000   0.00000  -0.80603   0.00000
  50        7D 0        0.00000  -1.48541  -0.00000   0.00000   0.00000
  51        7D+1        0.00000   0.00000   0.00000   0.00000   0.00000
  52        7D-1        0.00000   0.00000   0.00000   0.00000  -0.73678
  53        7D+2        0.00000  -0.00000   0.47320   0.00000   0.00000
  54        7D-2       -0.32701   0.00000   0.00000   0.47320   0.00000
                          51        52        53        54
                       (PIG)--V  (SGU)--V  (SGG)--V  (SGU)--V
     Eigenvalues --     5.33305   6.32215  35.22604  36.14563
   1 1   N  1S          0.00000   0.05859  -1.51648  -1.52375
   2        2S          0.00000   0.07903   1.59529   1.64475
   3        2PX         0.06617   0.00000   0.00000   0.00000
   4        2PY         0.00000   0.00000   0.00000   0.00000
   5        2PZ         0.00000  -0.26675   0.00308  -0.08164
   6        3S          0.00000  -0.52729  -0.30395  -0.45856
   7        3PX         0.00381   0.00000   0.00000   0.00000
   8        3PY         0.00000   0.00000   0.00000   0.00000
   9        3PZ         0.00000   1.21676   0.00547   0.46343
  10        4S          0.00000  -0.16134   0.20787  -0.63913
  11        4PX         0.66247   0.00000   0.00000   0.00000
  12        4PY         0.00000   0.00000   0.00000   0.00000
  13        4PZ         0.00000  -0.35829  -0.07387   0.32945
  14        5S          0.00000   3.01667  -0.05177  -0.35049
  15        5PX        -0.20159   0.00000   0.00000   0.00000
  16        5PY         0.00000   0.00000   0.00000   0.00000
  17        5PZ         0.00000  -0.70573   0.05348   0.07416
  18        6D 0        0.00000  -0.97712   0.00523  -0.08257
  19        6D+1        0.84618   0.00000   0.00000   0.00000
  20        6D-1        0.00000   0.00000   0.00000   0.00000
  21        6D+2        0.00000  -0.00000   0.00000  -0.00000
  22        6D-2        0.00000   0.00000   0.00000   0.00000
  23        7D 0        0.00000   0.07860   0.07005  -0.20505
  24        7D+1       -0.73678   0.00000   0.00000   0.00000
  25        7D-1        0.00000   0.00000   0.00000   0.00000
  26        7D+2        0.00000   0.00000   0.00000   0.00000
  27        7D-2        0.00000   0.00000   0.00000   0.00000
  28 2   N  1S          0.00000  -0.05859  -1.51648   1.52375
  29        2S          0.00000  -0.07903   1.59529  -1.64475
  30        2PX        -0.06617   0.00000   0.00000   0.00000
  31        2PY         0.00000   0.00000   0.00000   0.00000
  32        2PZ         0.00000  -0.26675  -0.00308  -0.08164
  33        3S          0.00000   0.52729  -0.30395   0.45856
  34        3PX        -0.00381   0.00000   0.00000   0.00000
  35        3PY         0.00000   0.00000   0.00000   0.00000
  36        3PZ         0.00000   1.21676  -0.00547   0.46343
  37        4S          0.00000   0.16134   0.20787   0.63913
  38        4PX        -0.66247   0.00000   0.00000   0.00000
  39        4PY         0.00000   0.00000   0.00000   0.00000
  40        4PZ         0.00000  -0.35829   0.07387   0.32945
  41        5S          0.00000  -3.01667  -0.05177   0.35049
  42        5PX         0.20159   0.00000   0.00000   0.00000
  43        5PY         0.00000   0.00000   0.00000   0.00000
  44        5PZ         0.00000  -0.70573  -0.05348   0.07416
  45        6D 0        0.00000   0.97712   0.00523   0.08257
  46        6D+1        0.84618   0.00000   0.00000   0.00000
  47        6D-1        0.00000   0.00000   0.00000   0.00000
  48        6D+2        0.00000   0.00000   0.00000   0.00000
  49        6D-2        0.00000   0.00000   0.00000   0.00000
  50        7D 0        0.00000  -0.07860   0.07005   0.20505
  51        7D+1       -0.73678   0.00000   0.00000   0.00000
  52        7D-1        0.00000   0.00000   0.00000   0.00000
  53        7D+2        0.00000  -0.00000   0.00000  -0.00000
  54        7D-2        0.00000   0.00000   0.00000   0.00000
     Density Matrix:
                           1         2         3         4         5
   1 1   N  1S          0.65397
   2        2S          0.57053   0.51536
   3        2PX        -0.00000  -0.00000   0.08372
   4        2PY        -0.00000  -0.00000   0.00000   0.08372
   5        2PZ        -0.01008  -0.01614   0.00000   0.00000   0.14066
   6        3S         -0.12738  -0.21628   0.00000   0.00000   0.04525
   7        3PX        -0.00000  -0.00000   0.12689   0.00000   0.00000
   8        3PY        -0.00000  -0.00000   0.00000   0.12689   0.00000
   9        3PZ        -0.01740  -0.02682   0.00000   0.00000   0.19066
  10        4S         -0.13165  -0.20972   0.00000   0.00000   0.17822
  11        4PX        -0.00000  -0.00000   0.08434   0.00000   0.00000
  12        4PY        -0.00000  -0.00000   0.00000   0.08434   0.00000
  13        4PZ        -0.01262  -0.02027   0.00000   0.00000   0.09168
  14        5S          0.06159   0.08784  -0.00000  -0.00000  -0.03478
  15        5PX        -0.00000  -0.00000   0.00354   0.00000   0.00000
  16        5PY        -0.00000  -0.00000   0.00000   0.00354   0.00000
  17        5PZ        -0.02042  -0.02969   0.00000   0.00000   0.01806
  18        6D 0       -0.00027  -0.00113   0.00000   0.00000  -0.01257
  19        6D+1       -0.00000  -0.00000  -0.00732   0.00000  -0.00000
  20        6D-1       -0.00000  -0.00000   0.00000  -0.00732  -0.00000
  21        6D+2        0.00000   0.00000  -0.00000   0.00000   0.00000
  22        6D-2        0.00000   0.00000  -0.00000  -0.00000   0.00000
  23        7D 0        0.00008  -0.00029   0.00000   0.00000  -0.00728
  24        7D+1        0.00000  -0.00000  -0.01434   0.00000   0.00000
  25        7D-1        0.00000  -0.00000   0.00000  -0.01434   0.00000
  26        7D+2       -0.00000  -0.00000  -0.00000   0.00000  -0.00000
  27        7D-2        0.00000   0.00000  -0.00000  -0.00000   0.00000
  28 2   N  1S          0.00374   0.00574   0.00000   0.00000   0.02314
  29        2S          0.00574   0.00813   0.00000   0.00000   0.03714
  30        2PX        -0.00000  -0.00000   0.08372   0.00000  -0.00000
  31        2PY        -0.00000  -0.00000   0.00000   0.08372  -0.00000
  32        2PZ        -0.02314  -0.03714  -0.00000  -0.00000  -0.10317
  33        3S         -0.01160  -0.01434  -0.00000  -0.00000  -0.10930
  34        3PX        -0.00000  -0.00000   0.12689   0.00000  -0.00000
  35        3PY        -0.00000  -0.00000   0.00000   0.12689  -0.00000
  36        3PZ        -0.03326  -0.05006  -0.00000  -0.00000  -0.13987
  37        4S          0.03330   0.05879  -0.00000  -0.00000  -0.01383
  38        4PX        -0.00000  -0.00000   0.08434   0.00000  -0.00000
  39        4PY        -0.00000  -0.00000   0.00000   0.08434  -0.00000
  40        4PZ        -0.00539  -0.00662  -0.00000  -0.00000  -0.07426
  41        5S         -0.06300  -0.09152   0.00000   0.00000   0.07590
  42        5PX        -0.00000  -0.00000   0.00354   0.00000   0.00000
  43        5PY        -0.00000  -0.00000   0.00000   0.00354   0.00000
  44        5PZ        -0.01597  -0.02377   0.00000   0.00000   0.01586
  45        6D 0       -0.00330  -0.00485  -0.00000  -0.00000  -0.01081
  46        6D+1       -0.00000  -0.00000   0.00732   0.00000  -0.00000
  47        6D-1       -0.00000  -0.00000   0.00000   0.00732  -0.00000
  48        6D+2        0.00000   0.00000   0.00000  -0.00000  -0.00000
  49        6D-2        0.00000   0.00000   0.00000   0.00000   0.00000
  50        7D 0       -0.00485  -0.00573  -0.00000  -0.00000  -0.00532
  51        7D+1       -0.00000  -0.00000   0.01434   0.00000  -0.00000
  52        7D-1       -0.00000  -0.00000   0.00000   0.01434  -0.00000
  53        7D+2        0.00000   0.00000   0.00000  -0.00000  -0.00000
  54        7D-2        0.00000   0.00000   0.00000   0.00000   0.00000
                           6         7         8         9        10
   6        3S          0.65241
   7        3PX         0.00000   0.19234
   8        3PY         0.00000   0.00000   0.19234
   9        3PZ         0.07190   0.00000   0.00000   0.25880
  10        4S          0.59373   0.00000   0.00000   0.24869   0.69557
  11        4PX         0.00000   0.12784   0.00000  -0.00000   0.00000
  12        4PY         0.00000   0.00000   0.12784  -0.00000   0.00000
  13        4PZ         0.05617  -0.00000  -0.00000   0.12568   0.12895
  14        5S         -0.22084  -0.00000  -0.00000  -0.04682  -0.26127
  15        5PX         0.00000   0.00536   0.00000   0.00000   0.00000
  16        5PY         0.00000   0.00000   0.00536   0.00000   0.00000
  17        5PZ         0.07615   0.00000   0.00000   0.02471   0.09209
  18        6D 0        0.00535   0.00000   0.00000  -0.01684  -0.00841
  19        6D+1        0.00000  -0.01110   0.00000  -0.00000  -0.00000
  20        6D-1        0.00000   0.00000  -0.01110  -0.00000  -0.00000
  21        6D+2        0.00000  -0.00000   0.00000   0.00000   0.00000
  22        6D-2        0.00000  -0.00000  -0.00000   0.00000   0.00000
  23        7D 0        0.00204   0.00000   0.00000  -0.00974  -0.00627
  24        7D+1        0.00000  -0.02173   0.00000   0.00000  -0.00000
  25        7D-1        0.00000   0.00000  -0.02173   0.00000  -0.00000
  26        7D+2       -0.00000  -0.00000   0.00000  -0.00000  -0.00000
  27        7D-2        0.00000  -0.00000  -0.00000   0.00000   0.00000
  28 2   N  1S         -0.01160   0.00000   0.00000   0.03326   0.03330
  29        2S         -0.01434   0.00000   0.00000   0.05006   0.05879
  30        2PX         0.00000   0.12689   0.00000  -0.00000   0.00000
  31        2PY         0.00000   0.00000   0.12689  -0.00000   0.00000
  32        2PZ         0.10930  -0.00000  -0.00000  -0.13987   0.01383
  33        3S          0.01456  -0.00000  -0.00000  -0.13729  -0.19816
  34        3PX         0.00000   0.19234   0.00000  -0.00000   0.00000
  35        3PY         0.00000   0.00000   0.19234  -0.00000   0.00000
  36        3PZ         0.13729  -0.00000  -0.00000  -0.18994   0.01145
  37        4S         -0.19816  -0.00000  -0.00000  -0.01145  -0.28826
  38        4PX         0.00000   0.12784   0.00000  -0.00000  -0.00000
  39        4PY         0.00000   0.00000   0.12784  -0.00000  -0.00000
  40        4PZ         0.01555  -0.00000  -0.00000  -0.10205  -0.03973
  41        5S          0.23452   0.00000   0.00000   0.10336   0.30547
  42        5PX         0.00000   0.00536   0.00000   0.00000   0.00000
  43        5PY         0.00000   0.00000   0.00536   0.00000   0.00000
  44        5PZ         0.06346   0.00000   0.00000   0.02130   0.08161
  45        6D 0        0.01255  -0.00000  -0.00000  -0.01445   0.00058
  46        6D+1        0.00000   0.01110   0.00000  -0.00000   0.00000
  47        6D-1        0.00000   0.00000   0.01110  -0.00000   0.00000
  48        6D+2       -0.00000   0.00000  -0.00000  -0.00000  -0.00000
  49        6D-2        0.00000   0.00000   0.00000   0.00000   0.00000
  50        7D 0        0.00999  -0.00000  -0.00000  -0.00706   0.00372
  51        7D+1        0.00000   0.02173   0.00000  -0.00000   0.00000
  52        7D-1        0.00000   0.00000   0.02173  -0.00000   0.00000
  53        7D+2        0.00000   0.00000  -0.00000  -0.00000   0.00000
  54        7D-2        0.00000   0.00000   0.00000   0.00000   0.00000
                          11        12        13        14        15
  11        4PX         0.08497
  12        4PY         0.00000   0.08497
  13        4PZ        -0.00000  -0.00000   0.06598
  14        5S         -0.00000  -0.00000  -0.01019   0.16787
  15        5PX         0.00357   0.00000   0.00000  -0.00000   0.00015
  16        5PY         0.00000   0.00357   0.00000  -0.00000   0.00000
  17        5PZ         0.00000   0.00000   0.00950  -0.04977   0.00000
  18        6D 0        0.00000   0.00000  -0.00760   0.00088  -0.00000
  19        6D+1       -0.00738   0.00000  -0.00000   0.00000  -0.00031
  20        6D-1        0.00000  -0.00738  -0.00000   0.00000   0.00000
  21        6D+2       -0.00000   0.00000   0.00000  -0.00000  -0.00000
  22        6D-2       -0.00000  -0.00000   0.00000   0.00000  -0.00000
  23        7D 0        0.00000   0.00000  -0.00419   0.00205   0.00000
  24        7D+1       -0.01444   0.00000   0.00000   0.00000  -0.00061
  25        7D-1        0.00000  -0.01444   0.00000   0.00000   0.00000
  26        7D+2       -0.00000   0.00000  -0.00000   0.00000  -0.00000
  27        7D-2       -0.00000  -0.00000   0.00000   0.00000  -0.00000
  28 2   N  1S          0.00000   0.00000   0.00539  -0.06300   0.00000
  29        2S          0.00000   0.00000   0.00662  -0.09152   0.00000
  30        2PX         0.08434   0.00000  -0.00000  -0.00000   0.00354
  31        2PY         0.00000   0.08434  -0.00000  -0.00000   0.00000
  32        2PZ        -0.00000  -0.00000  -0.07426  -0.07590   0.00000
  33        3S         -0.00000  -0.00000  -0.01555   0.23452  -0.00000
  34        3PX         0.12784   0.00000  -0.00000  -0.00000   0.00536
  35        3PY         0.00000   0.12784  -0.00000  -0.00000   0.00000
  36        3PZ        -0.00000  -0.00000  -0.10205  -0.10336   0.00000
  37        4S          0.00000   0.00000   0.03973   0.30547  -0.00000
  38        4PX         0.08497   0.00000  -0.00000  -0.00000   0.00357
  39        4PY         0.00000   0.08497  -0.00000  -0.00000   0.00000
  40        4PZ        -0.00000  -0.00000  -0.05787  -0.04135   0.00000
  41        5S          0.00000   0.00000   0.04135  -0.16001   0.00000
  42        5PX         0.00357   0.00000   0.00000  -0.00000   0.00015
  43        5PY         0.00000   0.00357   0.00000  -0.00000   0.00000
  44        5PZ         0.00000   0.00000   0.00629  -0.05063   0.00000
  45        6D 0       -0.00000  -0.00000  -0.00678  -0.00438   0.00000
  46        6D+1        0.00738   0.00000  -0.00000  -0.00000   0.00031
  47        6D-1        0.00000   0.00738  -0.00000  -0.00000   0.00000
  48        6D+2        0.00000  -0.00000  -0.00000   0.00000   0.00000
  49        6D-2        0.00000   0.00000   0.00000   0.00000   0.00000
  50        7D 0       -0.00000  -0.00000  -0.00327  -0.00385  -0.00000
  51        7D+1        0.01444   0.00000  -0.00000  -0.00000   0.00061
  52        7D-1        0.00000   0.01444  -0.00000  -0.00000   0.00000
  53        7D+2        0.00000  -0.00000  -0.00000  -0.00000   0.00000
  54        7D-2        0.00000   0.00000   0.00000   0.00000   0.00000
                          16        17        18        19        20
  16        5PY         0.00015
  17        5PZ         0.00000   0.01552
  18        6D 0       -0.00000  -0.00079   0.00127
  19        6D+1        0.00000  -0.00000   0.00000   0.00064
  20        6D-1       -0.00031  -0.00000   0.00000   0.00000   0.00064
  21        6D+2        0.00000   0.00000  -0.00000   0.00000  -0.00000
  22        6D-2       -0.00000   0.00000   0.00000   0.00000   0.00000
  23        7D 0        0.00000  -0.00086   0.00073  -0.00000  -0.00000
  24        7D+1        0.00000  -0.00000  -0.00000   0.00125   0.00000
  25        7D-1       -0.00061  -0.00000  -0.00000   0.00000   0.00125
  26        7D+2        0.00000  -0.00000   0.00000   0.00000  -0.00000
  27        7D-2       -0.00000   0.00000   0.00000   0.00000   0.00000
  28 2   N  1S          0.00000   0.01597  -0.00330  -0.00000  -0.00000
  29        2S          0.00000   0.02377  -0.00485  -0.00000  -0.00000
  30        2PX         0.00000   0.00000   0.00000  -0.00732   0.00000
  31        2PY         0.00354   0.00000   0.00000   0.00000  -0.00732
  32        2PZ         0.00000   0.01586   0.01081   0.00000   0.00000
  33        3S         -0.00000  -0.06346   0.01255   0.00000   0.00000
  34        3PX         0.00000   0.00000   0.00000  -0.01110   0.00000
  35        3PY         0.00536   0.00000   0.00000   0.00000  -0.01110
  36        3PZ         0.00000   0.02130   0.01445   0.00000   0.00000
  37        4S         -0.00000  -0.08161   0.00058   0.00000   0.00000
  38        4PX         0.00000   0.00000   0.00000  -0.00738   0.00000
  39        4PY         0.00357   0.00000   0.00000   0.00000  -0.00738
  40        4PZ         0.00000   0.00629   0.00678   0.00000   0.00000
  41        5S          0.00000   0.05063  -0.00438  -0.00000  -0.00000
  42        5PX         0.00000   0.00000  -0.00000  -0.00031   0.00000
  43        5PY         0.00015   0.00000  -0.00000   0.00000  -0.00031
  44        5PZ         0.00000   0.01523  -0.00082  -0.00000  -0.00000
  45        6D 0        0.00000   0.00082   0.00118   0.00000   0.00000
  46        6D+1        0.00000   0.00000   0.00000  -0.00064   0.00000
  47        6D-1        0.00031   0.00000   0.00000   0.00000  -0.00064
  48        6D+2       -0.00000  -0.00000  -0.00000  -0.00000   0.00000
[...]
  21        6D+2        0.00000
  22        6D-2        0.00000
  23        7D 0        0.00515
  24        7D+1        0.02357
  25        7D-1        0.02357
  26        7D+2       -0.00000
  27        7D-2        0.00000
  28 2   N  1S          1.09604
  29        2S          0.89522
  30        2PX         0.20118
  31        2PY         0.20118
  32        2PZ         0.33729
  33        3S          0.98473
  34        3PX         0.46383
  35        3PY         0.46383
  36        3PZ         0.63767
  37        4S          0.84586
  38        4PX         0.30026
  39        4PY         0.30026
  40        4PZ         0.15359
  41        5S         -0.04246
  42        5PX         0.00720
  43        5PY         0.00720
  44        5PZ         0.07941
  45        6D 0        0.00750
  46        6D+1        0.00395
  47        6D-1        0.00395
  48        6D+2        0.00000
  49        6D-2        0.00000
  50        7D 0        0.00515
  51        7D+1        0.02357
  52        7D-1        0.02357
  53        7D+2       -0.00000
  54        7D-2        0.00000
          Condensed to atoms (all electrons):
               1          2
     1  N    6.058677   0.941323
     2  N    0.941323   6.058677
 Mulliken charges:
               1
     1  N    0.000000
     2  N    0.000000
 Sum of Mulliken charges =   0.00000
 Mulliken charges with hydrogens summed into heavy atoms:
               1
     1  N    0.000000
     2  N    0.000000
 APT charges:
               1
     1  N    0.000000
     2  N    0.000000
 Sum of APT charges =   0.00000
 APT charges with hydrogens summed into heavy atoms:
               1
     1  N    0.000000
     2  N    0.000000
 Electronic spatial extent (au):  <R**2>=             38.7348
 Charge=              0.0000 electrons
 Dipole moment (field-independent basis, Debye):
    X=              0.0000    Y=             -0.0000    Z=              0.0000  Tot=              0.0000
 Quadrupole moment (field-independent basis, Debye-Ang):
   XX=            -10.2463   YY=            -10.2463   ZZ=            -11.6842
   XY=              0.0000   XZ=              0.0000   YZ=             -0.0000
 Traceless Quadrupole moment (field-independent basis, Debye-Ang):
   XX=              0.4793   YY=              0.4793   ZZ=             -0.9586
   XY=              0.0000   XZ=              0.0000   YZ=             -0.0000
 Octapole moment (field-independent basis, Debye-Ang**2):
  XXX=             -0.0000  YYY=              0.0000  ZZZ=             -0.0000  XYY=             -0.0000
  XXY=              0.0000  XXZ=              0.0000  XZZ=             -0.0000  YZZ=             -0.0000
  YYZ=             -0.0000  XYZ=             -0.0000
 Hexadecapole moment (field-independent basis, Debye-Ang**3):
 XXXX=             -8.8212 YYYY=             -8.8212 ZZZZ=            -31.4389 XXXY=              0.0000
 XXXZ=              0.0000 YYYX=              0.0000 YYYZ=             -0.0000 ZZZX=              0.0000
 ZZZY=             -0.0000 XXYY=             -2.9404 XXZZ=             -6.2955 YYZZ=             -6.2955
 XXYZ=             -0.0000 YYXZ=              0.0000 ZZXY=              0.0000
 N-N= 2.381896126230D+01 E-N=-3.041581057185D+02  KE= 1.092352049056D+02
 Symmetry AG   KE= 5.346857212721D+01
 Symmetry B1G  KE= 1.899591268060D-34
 Symmetry B2G  KE= 1.107799320674D-31
 Symmetry B3G  KE= 4.335757496336D-31
 Symmetry AU   KE= 7.545018784629D-34
 Symmetry B1U  KE= 4.887414867558D+01
 Symmetry B2U  KE= 3.446242051416D+00
 Symmetry B3U  KE= 3.446242051416D+00
 There are a total of       45020 grid points.
 ElSum from          density=       13.9999999052
 ElSum from atomic densities=       13.9999999046

 Hirshfeld populations at iteration   1 (CX, CA, CB, DipXYZ):
               1          2          3          4          5          6
     1  N    0.000003   3.500000   3.500000  -0.000000  -0.000000  -0.047858
     2  N    0.000003   3.500000   3.500000  -0.000000  -0.000000   0.047858
       Tot   0.000006   7.000000   7.000000  -0.000000  -0.000000   0.000000

 Dip from Atomic Chgs              0.000000   0.000000   0.000000
         Total Dipole             -0.000000  -0.000000   0.000000

 Hirshfeld charges, spin densities, dipoles, and CM5 charges using IRadAn=      5:
              Q-H        S-H        Dx         Dy         Dz        Q-CM5   
     1  N    0.000000   0.000000  -0.000000  -0.000000  -0.047858   0.000000
     2  N    0.000000   0.000000  -0.000000  -0.000000   0.047858   0.000000
       Tot   0.000000   0.000000  -0.000000  -0.000000   0.000000   0.000000
 Hirshfeld charges with hydrogens summed into heavy atoms:
              Q-H       Q-CM5   
     1  N    0.000000   0.000000
     2  N    0.000000   0.000000
 
 EQQ= 0.000000000000E+00 EQD= 0.000000000000E+00 EDD=-0.263077495313E-03
 EQQ+QD+DD=-0.263077495313E-03
 
 Orbital energies and kinetic energies (alpha):
                                 1                 2
   1 (SGG)--O                -14.537266         22.061775
   2 (SGU)--O                -14.535299         22.073116
   3 (SGG)--O                 -1.239198          2.627513
   4 (SGU)--O                 -0.648815          2.363958
   5 (PIU)--O                 -0.561156          1.723121
   6 (PIU)--O                 -0.561156          1.723121
   7 (SGG)--O                 -0.526738          2.044998
   8 (PIG)--V                  0.050720          1.840577
   9 (PIG)--V                  0.050720          1.840577
  10 (SGG)--V                  0.137807          0.429181
  11 (SGU)--V                  0.139848          0.265023
  12 (PIU)--V                  0.160528          0.312923
  13 (PIU)--V                  0.160528          0.312923
  14 (SGG)--V                  0.211803          0.312747
  15 (PIG)--V                  0.235010          0.639197
  16 (PIG)--V                  0.235010          0.639197
  17 (SGU)--V                  0.326347          0.470968
  18 (SGU)--V                  0.579372          1.646763
  19 (SGG)--V                  0.742603          1.448553
  20 (PIU)--V                  0.776336          1.769160
  21 (PIU)--V                  0.776336          1.769160
  22 (PIG)--V                  0.888769          2.114665
  23 (PIG)--V                  0.888769          2.114665
  24 (DLTG)--V                 0.890247          1.490353
  25 (DLTG)--V                 0.890247          1.490353
  26 (SGU)--V                  0.947564          3.329731
  27 (SGG)--V                  0.953374          2.960792
  28 (PIU)--V                  1.171597          2.047388
  29 (PIU)--V                  1.171597          2.047388
  30 (SGU)--V                  1.275608          3.482035
  31 (DLTU)--V                 1.324995          1.874341
  32 (DLTU)--V                 1.324995          1.874341
  33 (PIG)--V                  1.841022          2.496199
  34 (PIG)--V                  1.841022          2.496199
  35 (SGG)--V                  1.908011          2.936872
  36 (SGU)--V                  2.096965          4.402833
  37 (PIU)--V                  3.764759          8.931964
  38 (PIU)--V                  3.764759          8.931964
  39 (PIG)--V                  4.044759          8.982775
  40 (PIG)--V                  4.044759          8.982775
  41 (SGG)--V                  4.090439          8.046841
  42 (PIU)--V                  4.437184          6.785503
  43 (PIU)--V                  4.437184          6.785503
  44 (SGG)--V                  4.476546          8.345329
  45 (DLTG)--V                 4.676994          7.074630
  46 (DLTG)--V                 4.676996          7.074630
  47 (SGU)--V                  4.748954          9.483803
  48 (DLTU)--V                 4.845193          7.268476
  49 (DLTU)--V                 4.845195          7.268476
  50 (PIG)--V                  5.341340          7.923505
  51 (PIG)--V                  5.341340          7.923505
  52 (SGU)--V                  6.334140          9.608287
  53 (SGG)--V                 35.225602         88.980431
  54 (SGU)--V                 36.164417         89.140292
 Total kinetic energy from orbitals= 1.092352049056D+02
  Exact polarizability:   8.718  -0.000   8.718  -0.000  -0.000  14.983
 Approx polarizability:   9.307  -0.000   9.307  -0.000  -0.000  20.107
 No NMR shielding tensors so no spin-rotation constants.
 Leave Link  601 at Fri Sep  6 09:52:15 2024, MaxMem=   104857600 cpu:               0.1 elap:               0.1
 (Enter /Users/asuyarger/Applications/G16/g16/l701.exe)
 ... and contract with generalized density number  0.
 Compute integral second derivatives.
 R6Disp: Adding Grimme-D2 dispersion energy 2nd derivatives to the Hessian.
 Leave Link  701 at Fri Sep  6 09:52:15 2024, MaxMem=   104857600 cpu:               0.1 elap:               0.1
 (Enter /Users/asuyarger/Applications/G16/g16/l702.exe)
 L702 exits ... SP integral derivatives will be done elsewhere.
 Leave Link  702 at Fri Sep  6 09:52:15 2024, MaxMem=   104857600 cpu:               0.0 elap:               0.0
 (Enter /Users/asuyarger/Applications/G16/g16/l703.exe)
 Integral derivatives from FoFJK, PRISM(SPDF).
 Compute integral second derivatives, UseDBF=F ICtDFT=           0.
 Calling FoFJK, ICntrl=    100127 FMM=F ISym2X=1 I1Cent= 0 IOpClX= 0 NMat=1 NMatS=1 NMatT=0.
 FoFJK:  IHMeth= 1 ICntrl=  100127 DoSepK=T KAlg= 0 I1Cent=           0 FoldK=F
 IRaf=         1 NMat=       1 IRICut=       1 DoRegI=T DoRafI=F ISym2E= 1 IDoP0=0 IntGTp=1.
 FoFCou: FMM=F IPFlag=           0 FMFlag=      100000 FMFlg1=         800
         NFxFlg=           0 DoJE=F BraDBF=F KetDBF=F FulRan=T
         wScrn=  0.000000 ICntrl=    100527 IOpCl=  0 I1Cent=           0 NGrid=           0
         NMat0=    1 NMatS0=      1 NMatT0=    0 NMatD0=    1 NMtDS0=    0 NMtDT0=    0
 Petite list used in FoFCou.
 Leave Link  703 at Fri Sep  6 09:52:16 2024, MaxMem=   104857600 cpu:               0.7 elap:               0.7
 (Enter /Users/asuyarger/Applications/G16/g16/l716.exe)
 Dipole        = 3.94430453D-31-8.42594351D-35 4.11716954D-22
 Polarizability= 8.71761842D+00-1.50590584D-18 8.71761842D+00
                -6.13374299D-17-1.07723116D-30 1.49832496D+01
 HyperPolar    =-2.19719424D-11-4.20383868D-16-3.13980392D-12
                -1.26634906D-11 4.68982849D-12 2.31418184D-16
                 3.60263581D-12-3.77681517D-11 1.46382366D-12
                 9.42311209D-11
 Full mass-weighted force constant matrix:
 Low frequencies ---   -0.0009    0.0005    0.0005   12.9130   12.9130 2476.7398
 Diagonal vibrational polarizability:
        0.0000000       0.0000000       0.0000000
 Diagonal vibrational hyperpolarizability:
       -0.0000000       0.0000000       0.0000000
 Harmonic frequencies (cm**-1), IR intensities (KM/Mole), Raman scattering
 activities (A**4/AMU), depolarization ratios for plane and unpolarized
 incident light, reduced masses (AMU), force constants (mDyne/A),
 and normal coordinates:
                      1
                     SGG
 Frequencies --   2476.7398
 Red. masses --     14.0031
 Frc consts  --     50.6098
 IR Inten    --      0.0000
 Raman Activ --     20.2271
 Depolar (P) --      0.1695
 Depolar (U) --      0.2899
  Atom  AN      X      Y      Z
     1   7    -0.00   0.00   0.71
     2   7     0.00   0.00  -0.71

 -------------------
 - Thermochemistry -
 -------------------
 Temperature   298.150 Kelvin.  Pressure   1.00000 Atm.
 Atom     1 has atomic number  7 and mass  14.00307
 Atom     2 has atomic number  7 and mass  14.00307
 Molecular mass:    28.00615 amu.
 Principal axes and moments of inertia in atomic units:
                           1         2         3
     Eigenvalues --     0.00000  29.63056  29.63056
           X           -0.00000   1.00000  -0.00000
           Y            0.00000   0.00000   1.00000
           Z            1.00000   0.00000  -0.00000
 This molecule is a prolate symmetric top.
 Rotational symmetry number  2.
 Rotational temperature (Kelvin)      2.92313
 Rotational constant (GHZ):          60.908099
 Zero-point vibrational energy      14814.2 (Joules/Mol)
                                    3.54068 (Kcal/Mol)
 Vibrational temperatures:   3563.48
          (Kelvin)
 
 Zero-point correction=                           0.005642 (Hartree/Particle)
 Thermal correction to Energy=                    0.008003
 Thermal correction to Enthalpy=                  0.008947
 Thermal correction to Gibbs Free Energy=        -0.012778
 Sum of electronic and zero-point Energies=           -109.516236
 Sum of electronic and thermal Energies=              -109.513875
 Sum of electronic and thermal Enthalpies=            -109.512931
 Sum of electronic and thermal Free Energies=         -109.534656
 
                     E (Thermal)             CV                S
                      KCal/Mol        Cal/Mol-Kelvin    Cal/Mol-Kelvin
 Total                    5.022              4.970             45.725
 Electronic               0.000              0.000              0.000
 Translational            0.889              2.981             35.924
 Rotational               0.592              1.987              9.800
 Vibrational              3.541              0.002              0.000
                       Q            Log10(Q)             Ln(Q)
 Total Bot       0.754326D+06          5.877559         13.533580
 Total V=0       0.297094D+09          8.472894         19.509559
 Vib (Bot)       0.253903D-02         -2.595332         -5.975972
 Vib (V=0)       0.100001D+01          0.000003          0.000006
 Electronic      0.100000D+01          0.000000          0.000000
 Translational   0.582551D+07          6.765334         15.577757
 Rotational      0.509985D+02          1.707557          3.931795
 ***** Axes restored to original set *****
 -------------------------------------------------------------------
 Center     Atomic                   Forces (Hartrees/Bohr)
 Number     Number              X              Y              Z
 -------------------------------------------------------------------
      1        7           0.000000017    0.000000000   -0.000000000
      2        7          -0.000000017   -0.000000000    0.000000000
 -------------------------------------------------------------------
 Cartesian Forces:  Max     0.000000017 RMS     0.000000010
 Force constants in Cartesian coordinates: 
                1             2             3             4             5 
      1  0.162535D+01
      2  0.000000D+00  0.441815D-04
      3  0.000000D+00  0.000000D+00  0.441815D-04
      4 -0.162535D+01  0.000000D+00  0.000000D+00  0.162535D+01
      5  0.000000D+00 -0.441815D-04  0.000000D+00  0.000000D+00  0.441815D-04
      6  0.000000D+00  0.000000D+00 -0.441815D-04  0.000000D+00  0.000000D+00
                6 
      6  0.441815D-04
 FormGI is forming the generalized inverse of G from B-inverse, IUseBI=4.
 Force constants in internal coordinates: 
                1 
      1  0.162535D+01
 Leave Link  716 at Fri Sep  6 09:52:16 2024, MaxMem=   104857600 cpu:               0.0 elap:               0.0
 (Enter /Users/asuyarger/Applications/G16/g16/l103.exe)

 GradGradGradGradGradGradGradGradGradGradGradGradGradGradGradGradGradGrad
 Berny optimization.
 Red2BG is reusing G-inverse.
 Internal  Forces:  Max     0.000000017 RMS     0.000000017
 Search for a local minimum.
 Step number   1 out of a maximum of    2
 All quantities printed in internal units (Hartrees-Bohrs-Radians)
 Second derivative matrix not updated -- analytic derivatives used.
 The second derivative matrix:
                          R1
           R1           1.62535
 ITU=  0
     Eigenvalues ---    1.62535
 Angle between quadratic step and forces=  90.00 degrees.
 Linear search not attempted -- first point.
 Iteration  1 RMS(Cart)=  0.00000001 RMS(Int)=  0.00000000
 ITry= 1 IFail=0 DXMaxC= 5.21D-09 DCOld= 1.00D+10 DXMaxT= 3.00D-01 DXLimC= 3.00D+00 Rises=F
 ClnCor:  largest displacement from symmetrization is 3.19D-25 for atom     2.
 Variable       Old X    -DE/DX   Delta X   Delta X   Delta X     New X
                                 (Linear)    (Quad)   (Total)
    R1        2.05718   0.00000   0.00000   0.00000   0.00000   2.05718
         Item               Value     Threshold  Converged?
 Maximum Force            0.000000     0.000450     YES
 RMS     Force            0.000000     0.000300     YES
 Maximum Displacement     0.000000     0.001800     YES
 RMS     Displacement     0.000000     0.001200     YES
 Predicted change in Energy=-8.814269D-17
 Optimization completed.
    -- Stationary point found.
                           ----------------------------
                           !   Optimized Parameters   !
                           ! (Angstroms and Degrees)  !
 --------------------------                            --------------------------
 ! Name  Definition              Value          Derivative Info.                !
 --------------------------------------------------------------------------------
 ! R1    R(1,2)                  1.0886         -DE/DX =    0.0                 !
 --------------------------------------------------------------------------------
 GradGradGradGradGradGradGradGradGradGradGradGradGradGradGradGradGradGrad

 Leave Link  103 at Fri Sep  6 09:52:16 2024, MaxMem=   104857600 cpu:               0.0 elap:               0.0
 (Enter /Users/asuyarger/Applications/G16/g16/l9999.exe)
 Dipole is zero, so no output in dipole orientation.

 ----------------------------------------------------------------------

 Electric dipole moment (input orientation):
 (Debye = 10**-18 statcoulomb cm , SI units = C m)
                  (au)            (Debye)         (10**-30 SI)
   Tot        0.000000D+00      0.000000D+00      0.000000D+00
   x          0.000000D+00      0.000000D+00      0.000000D+00
   y          0.000000D+00      0.000000D+00      0.000000D+00
   z          0.000000D+00      0.000000D+00      0.000000D+00

 Dipole polarizability, Alpha (input orientation).
 (esu units = cm**3 , SI units = C**2 m**2 J**-1)
 Alpha(0;0):
               (au)            (10**-24 esu)      (10**-40 SI)
   iso        0.108062D+02      0.160131D+01      0.178170D+01
   aniso      0.626563D+01      0.928471D+00      0.103306D+01
   xx         0.149832D+02      0.222029D+01      0.247040D+01
   yx         0.000000D+00      0.000000D+00      0.000000D+00
   yy         0.871762D+01      0.129182D+01      0.143734D+01
   zx         0.000000D+00      0.000000D+00      0.000000D+00
   zy         0.000000D+00      0.000000D+00      0.000000D+00
   zz         0.871762D+01      0.129182D+01      0.143734D+01

 ----------------------------------------------------------------------
 1\1\GINC-JEFFSMACSTUDIO\Freq\RwB97XD\6-311++G(2d,3p)\N2\ROOT\06-Sep-20
 24\0\\#P Geom=AllCheck Guess=TCheck SCRF=Check GenChk RwB97XD/6-311++G
 (2d,3p) Freq\\N2 Opt Freq HF 6-311++g(2d,3p) Full\\0,1\N,0.6315312481,
 0.52631578,0.\N,-0.4570839281,0.52631578,0.\\Version=EM64M-G16RevA.03\
 State=1-SGG\HF=-109.5218781\RMSD=9.941e-10\RMSF=9.773e-09\ZeroPoint=0.
 0056424\Thermal=0.008003\Dipole=0.,0.,0.\DipoleDeriv=0.,0.,0.,0.,0.,0.
 ,0.,0.,0.,0.,0.,0.,0.,0.,0.,0.,0.,0.\Polar=14.9832496,0.,8.7176184,0.,
 0.,8.7176184\PolarDeriv=11.381043,0.,2.0400817,0.,0.,2.0400817,0.,3.04
 57583,0.,0.,0.,0.,0.,0.,0.,3.0457583,0.,0.,-11.381043,0.,-2.0400817,0.
 ,0.,-2.0400817,0.,-3.0457583,0.,0.,0.,0.,0.,0.,0.,-3.0457583,0.,0.\Hyp
 erPolar=0.,0.,0.,0.,0.,0.,0.,0.,0.,0.\Quadrupole=-0.7126811,0.3563406,
 0.3563406,0.,0.,0.\PG=D*H [C*(N1.N1)]\NImag=0\\1.62534520,0.,0.0000441
 8,0.,0.,0.00004418,-1.62534520,0.,0.,1.62534520,0.,-0.00004418,0.,0.,0
 .00004418,0.,0.,-0.00004418,0.,0.,0.00004418\\-0.00000002,0.,0.,0.0000
 0002,0.,0.\\\@


 TRUST EVERYONE, BUT CUT THE CARDS.
 Job cpu time:       0 days  0 hours  0 minutes  4.0 seconds.
 Elapsed time:       0 days  0 hours  0 minutes  3.8 seconds.
 File lengths (MBytes):  RWF=      6 Int=      0 D2E=      0 Chk=      1 Scr=      1
 Normal termination of Gaussian 16 at Fri Sep  6 09:52:16 2024.
