 Entering Gaussian System, Link 0=g16
 Input=/Users/asuyarger/Downloads/N2_DFT_B3LPY_6311pp2d3p_Opt_Freq_Full.gjf
 Output=/Users/asuyarger/Downloads/N2_DFT_B3LPY_6311pp2d3p_Opt_Freq_Full.log
 Initial command:
 /Users/asuyarger/Applications/G16/g16/l1.exe "/Users/asuyarger/Applications/G16/scratch/Gau-88474.inp" -scrdir="/Users/asuyarger/Applications/G16/scratch/"
 Entering Link 1 = /Users/asuyarger/Applications/G16/g16/l1.exe PID=     88475.
  
 Copyright (c) 1988,1990,1992,1993,1995,1998,2003,2009,2016,
            Gaussian, Inc.  All Rights Reserved.
  
 This is part of the Gaussian(R) 16 program.  It is based on
 the Gaussian(R) 09 system (copyright 2009, Gaussian, Inc.),
 the Gaussian(R) 03 system (copyright 2003, Gaussian, Inc.),
 the Gaussian(R) 98 system (copyright 1998, Gaussian, Inc.),
 the Gaussian(R) 94 system (copyright 1995, Gaussian, Inc.),
 the Gaussian 92(TM) system (copyright 1992, Gaussian, Inc.),
 the Gaussian 90(TM) system (copyright 1990, Gaussian, Inc.),
 the Gaussian 88(TM) system (copyright 1988, Gaussian, Inc.),
 the Gaussian 86(TM) system (copyright 1986, Carnegie Mellon
 University), and the Gaussian 82(TM) system (copyright 1983,
 Carnegie Mellon University). Gaussian is a federally registered
 trademark of Gaussian, Inc.
  
 This software contains proprietary and confidential information,
 including trade secrets, belonging to Gaussian, Inc.
  
 This software is provided under written license and may be
 used, copied, transmitted, or stored only in accord with that
 written license.
  
 The following legend is applicable only to US Government
 contracts under FAR:
  
                    RESTRICTED RIGHTS LEGEND
  
 Use, reproduction and disclosure by the US Government is
 subject to restrictions as set forth in subparagraphs (a)
 and (c) of the Commercial Computer Software - Restricted
 Rights clause in FAR 52.227-19.
  
 Gaussian, Inc.
 340 Quinnipiac St., Bldg. 40, Wallingford CT 06492
  
  
 ---------------------------------------------------------------
 Warning -- This program may not be used in any manner that
 competes with the business of Gaussian, Inc. or will provide
 assistance to any competitor of Gaussian, Inc.  The licensee
 of this program is prohibited from giving any competitor of
 Gaussian, Inc. access to this program.  By using this program,
 the user acknowledges that Gaussian, Inc. is engaged in the
 business of creating and licensing software in the field of
 computational chemistry and represents and warrants to the
 licensee that it is not a competitor of Gaussian, Inc. and that
 it will not use this program in any manner prohibited above.
 ---------------------------------------------------------------
  

 Cite this work as:
 Gaussian 16, Revision A.03,
 M. J. Frisch, G. W. Trucks, H. B. Schlegel, G. E. Scuseria, 
 M. A. Robb, J. R. Cheeseman, G. Scalmani, V. Barone, 
 G. A. Petersson, H. Nakatsuji, X. Li, M. Caricato, A. V. Marenich, 
 J. Bloino, B. G. Janesko, R. Gomperts, B. Mennucci, H. P. Hratchian, 
 J. V. Ortiz, A. F. Izmaylov, J. L. Sonnenberg, D. Williams-Young, 
 F. Ding, F. Lipparini, F. Egidi, J. Goings, B. Peng, A. Petrone, 
 T. Henderson, D. Ranasinghe, V. G. Zakrzewski, J. Gao, N. Rega, 
 G. Zheng, W. Liang, M. Hada, M. Ehara, K. Toyota, R. Fukuda, 
 J. Hasegawa, M. Ishida, T. Nakajima, Y. Honda, O. Kitao, H. Nakai, 
 T. Vreven, K. Throssell, J. A. Montgomery, Jr., J. E. Peralta, 
 F. Ogliaro, M. J. Bearpark, J. J. Heyd, E. N. Brothers, K. N. Kudin, 
 V. N. Staroverov, T. A. Keith, R. Kobayashi, J. Normand, 
 K. Raghavachari, A. P. Rendell, J. C. Burant, S. S. Iyengar, 
 J. Tomasi, M. Cossi, J. M. Millam, M. Klene, C. Adamo, R. Cammi, 
 J. W. Ochterski, R. L. Martin, K. Morokuma, O. Farkas, 
 J. B. Foresman, and D. J. Fox, Gaussian, Inc., Wallingford CT, 2016.
 
 ******************************************
 Gaussian 16:  EM64M-G16RevA.03 25-Dec-2016
                 6-Sep-2024 
 ******************************************
 %chk=N2_DFT_B3LPY_6311pp2d3p_Opt_Freq_Full.chk
 ----------------------------------------------------------------------
 #p opt freq=raman b3lyp/6-311++g(2d,3p) guess=save pop=(hirshfeld,full
 ) geom=connectivity polar
 ----------------------------------------------------------------------
 1/18=20,19=15,26=3,38=1,57=2/1,3;
 2/9=110,12=2,17=6,18=5,40=1/2;
 3/5=4,6=6,7=1512,11=2,25=1,30=1,71=1,74=-5/1,2,3;
 4//1;
 5/5=2,38=5,98=1/2;
 6/7=3,28=1,79=1/1;
 7//1,2,3,16;
 1/18=20,19=15,26=3/3(2);
 2/9=110/2;
 99//99;
 2/9=110/2;
 3/5=4,6=6,7=1512,11=2,25=1,30=1,71=1,74=-5/1,2,3;
 4/5=5,16=3,69=1/1;
 5/5=2,38=5,98=1/2;
 7//1,2,3,16;
 1/18=20,19=15,26=3/3(-5);
 2/9=110/2;
 6/7=3,19=2,28=1,79=1/1;
 99/9=1/99;
 Leave Link    1 at Fri Sep  6 09:50:24 2024, MaxMem=           0 cpu:               0.0 elap:               0.0
 (Enter /Users/asuyarger/Applications/G16/g16/l101.exe)
 -----------------------------------
 N2 Opt Freq HF 6-311++g(2d,3p) Full
 -----------------------------------
 Symbolic Z-matrix:
 Charge =  0 Multiplicity = 1
 N                     0.63322   0.52632   0. 
 N                    -0.45878   0.52632   0. 
 
 ITRead=  0  0
 MicOpt= -1 -1
 NAtoms=      2 NQM=        2 NQMF=       0 NMMI=      0 NMMIF=      0
                NMic=       0 NMicF=      0.
                    Isotopes and Nuclear Properties:
 (Nuclear quadrupole moments (NQMom) in fm**2, nuclear magnetic moments (NMagM)
  in nuclear magnetons)

  Atom         1           2
 IAtWgt=          14          14
 AtmWgt=  14.0030740  14.0030740
 NucSpn=           2           2
 AtZEff=  -0.0000000  -0.0000000
 NQMom=    2.0440000   2.0440000
 NMagM=    0.4037610   0.4037610
 AtZNuc=   7.0000000   7.0000000
 Leave Link  101 at Fri Sep  6 09:50:24 2024, MaxMem=   104857600 cpu:               0.1 elap:               0.1
 (Enter /Users/asuyarger/Applications/G16/g16/l103.exe)

 GradGradGradGradGradGradGradGradGradGradGradGradGradGradGradGradGradGrad
 Berny optimization.
 Initialization pass.
                           ----------------------------
                           !    Initial Parameters    !
                           ! (Angstroms and Degrees)  !
 --------------------------                            --------------------------
 ! Name  Definition              Value          Derivative Info.                !
 --------------------------------------------------------------------------------
 ! R1    R(1,2)                  1.092          estimate D2E/DX2                !
 --------------------------------------------------------------------------------
 Trust Radius=3.00D-01 FncErr=1.00D-07 GrdErr=1.00D-06 EigMax=2.50D+02 EigMin=1.00D-04
 Number of steps in this run=     20 maximum allowed number of steps=    100.
 GradGradGradGradGradGradGradGradGradGradGradGradGradGradGradGradGradGrad

 Leave Link  103 at Fri Sep  6 09:50:24 2024, MaxMem=   104857600 cpu:               0.0 elap:               0.0
 (Enter /Users/asuyarger/Applications/G16/g16/l202.exe)
                          Input orientation:                          
 ---------------------------------------------------------------------
 Center     Atomic      Atomic             Coordinates (Angstroms)
 Number     Number       Type             X           Y           Z
 ---------------------------------------------------------------------
      1          7           0        0.633224    0.526316    0.000000
      2          7           0       -0.458776    0.526316    0.000000
 ---------------------------------------------------------------------
 Stoichiometry    N2
 Framework group  D*H[C*(N.N)]
 Deg. of freedom     1
 Full point group                 D*H     NOp   8
 Largest Abelian subgroup         D2H     NOp   8
 Largest concise Abelian subgroup C2      NOp   2
                         Standard orientation:                         
 ---------------------------------------------------------------------
 Center     Atomic      Atomic             Coordinates (Angstroms)
 Number     Number       Type             X           Y           Z
 ---------------------------------------------------------------------
      1          7           0        0.000000    0.000000    0.546000
      2          7           0        0.000000    0.000000   -0.546000
 ---------------------------------------------------------------------
 Rotational constants (GHZ):           0.0000000          60.5310956          60.5310956
 Leave Link  202 at Fri Sep  6 09:50:24 2024, MaxMem=   104857600 cpu:               0.0 elap:               0.0
 (Enter /Users/asuyarger/Applications/G16/g16/l301.exe)
 Standard basis: 6-311++G(2d,3p) (5D, 7F)
 Ernie: Thresh=  0.10000D-02 Tol=  0.10000D-05 Strict=F.
 There are    15 symmetry adapted cartesian basis functions of AG  symmetry.
 There are     2 symmetry adapted cartesian basis functions of B1G symmetry.
 There are     6 symmetry adapted cartesian basis functions of B2G symmetry.
 There are     6 symmetry adapted cartesian basis functions of B3G symmetry.
 There are     2 symmetry adapted cartesian basis functions of AU  symmetry.
 There are    15 symmetry adapted cartesian basis functions of B1U symmetry.
 There are     6 symmetry adapted cartesian basis functions of B2U symmetry.
 There are     6 symmetry adapted cartesian basis functions of B3U symmetry.
 There are    13 symmetry adapted basis functions of AG  symmetry.
 There are     2 symmetry adapted basis functions of B1G symmetry.
 There are     6 symmetry adapted basis functions of B2G symmetry.
 There are     6 symmetry adapted basis functions of B3G symmetry.
 There are     2 symmetry adapted basis functions of AU  symmetry.
 There are    13 symmetry adapted basis functions of B1U symmetry.
 There are     6 symmetry adapted basis functions of B2U symmetry.
 There are     6 symmetry adapted basis functions of B3U symmetry.
    54 basis functions,    84 primitive gaussians,    58 cartesian basis functions
     7 alpha electrons        7 beta electrons
       nuclear repulsion energy        23.7451312592 Hartrees.
 IExCor=  402 DFT=T Ex+Corr=B3LYP ExCW=0 ScaHFX=  0.200000
 ScaDFX=  0.800000  0.720000  1.000000  0.810000 ScalE2=  1.000000  1.000000
 IRadAn=      5 IRanWt=     -1 IRanGd=            0 ICorTp=0 IEmpDi=  4
 NAtoms=    2 NActive=    2 NUniq=    1 SFac= 4.00D+00 NAtFMM=   60 NAOKFM=F Big=F
 Integral buffers will be    131072 words long.
 Raffenetti 2 integral format.
 Two-electron integral symmetry is turned on.
 Leave Link  301 at Fri Sep  6 09:50:24 2024, MaxMem=   104857600 cpu:               0.0 elap:               0.0
 (Enter /Users/asuyarger/Applications/G16/g16/l302.exe)
 NPDir=0 NMtPBC=     1 NCelOv=     1 NCel=       1 NClECP=     1 NCelD=      1
         NCelK=      1 NCelE2=     1 NClLst=     1 CellRange=     0.0.
 One-electron integrals computed using PRISM.
 One-electron integral symmetry used in STVInt
 NBasis=    54 RedAO= T EigKep=  1.96D-04  NBF=    13     2     6     6     2    13     6     6
 NBsUse=    54 1.00D-06 EigRej= -1.00D+00 NBFU=    13     2     6     6     2    13     6     6
 Precomputing XC quadrature grid using
 IXCGrd= 4 IRadAn=           5 IRanWt=          -1 IRanGd=           0 AccXCQ= 0.00D+00.
 Generated NRdTot=       0 NPtTot=           0 NUsed=           0 NTot=          32
 NSgBfM=    58    58    58    58    58 MxSgAt=     2 MxSgA2=     2.
 Leave Link  302 at Fri Sep  6 09:50:24 2024, MaxMem=   104857600 cpu:               0.1 elap:               0.1
 (Enter /Users/asuyarger/Applications/G16/g16/l303.exe)
 DipDrv:  MaxL=1.
 Leave Link  303 at Fri Sep  6 09:50:24 2024, MaxMem=   104857600 cpu:               0.0 elap:               0.0
 (Enter /Users/asuyarger/Applications/G16/g16/l401.exe)
 ExpMin= 6.39D-02 ExpMax= 6.29D+03 ExpMxC= 9.49D+02 IAcc=3 IRadAn=         5 AccDes= 0.00D+00
 Harris functional with IExCor=  402 and IRadAn=       5 diagonalized for initial guess.
 HarFok:  IExCor=  402 AccDes= 0.00D+00 IRadAn=         5 IDoV= 1 UseB2=F ITyADJ=14
 ICtDFT=  3500011 ScaDFX=  1.000000  1.000000  1.000000  1.000000
 FoFCou: FMM=F IPFlag=           0 FMFlag=      100000 FMFlg1=           0
         NFxFlg=           0 DoJE=T BraDBF=F KetDBF=T FulRan=T
         wScrn=  0.000000 ICntrl=       500 IOpCl=  0 I1Cent=   200000004 NGrid=           0
         NMat0=    1 NMatS0=      1 NMatT0=    0 NMatD0=    1 NMtDS0=    0 NMtDT0=    0
 Petite list used in FoFCou.
 Harris En= -109.540905641915    
 JPrj=0 DoOrth=F DoCkMO=F.
 Initial guess orbital symmetries:
       Occupied  (SGG) (SGU) (SGG) (SGU) (PIU) (PIU) (SGG)
       Virtual   (PIG) (PIG) (SGG) (SGU) (PIU) (PIU) (SGG) (PIG)
                 (PIG) (SGU) (SGU) (SGG) (PIU) (PIU) (PIG) (PIG)
                 (SGU) (DLTG) (DLTG) (SGG) (PIU) (PIU) (SGU) (DLTU)
                 (DLTU) (PIG) (PIG) (SGG) (SGU) (PIU) (PIU) (PIG)
                 (PIG) (SGG) (SGG) (PIU) (PIU) (DLTG) (DLTG) (SGU)
                 (DLTU) (DLTU) (PIG) (PIG) (SGU) (SGG) (SGU)
 The electronic state of the initial guess is 1-SGG.
 Leave Link  401 at Fri Sep  6 09:50:24 2024, MaxMem=   104857600 cpu:               0.1 elap:               0.1
 (Enter /Users/asuyarger/Applications/G16/g16/l502.exe)
 Keep R1 ints in memory in symmetry-blocked form, NReq=1990124.
 FoFCou: FMM=F IPFlag=           0 FMFlag=           0 FMFlg1=           0
         NFxFlg=           0 DoJE=F BraDBF=F KetDBF=F FulRan=T
         wScrn=  0.000000 ICntrl=       600 IOpCl=  0 I1Cent=           0 NGrid=           0
         NMat0=    1 NMatS0=   1485 NMatT0=    0 NMatD0=    1 NMtDS0=    0 NMtDT0=    0
 Petite list used in FoFCou.
 Closed shell SCF:
 Using DIIS extrapolation, IDIIS=  1040.
 NGot=   104857600 LenX=   104695113 LenY=   104691308
 Requested convergence on RMS density matrix=1.00D-08 within 128 cycles.
 Requested convergence on MAX density matrix=1.00D-06.
 Requested convergence on             energy=1.00D-06.
 No special actions if energy rises.
 Integral accuracy reduced to 1.0D-05 until final iterations.

 Cycle   1  Pass 0  IDiag  1:
 E= -109.556526634261    
 DIIS: error= 2.13D-02 at cycle   1 NSaved=   1.
 NSaved= 1 IEnMin= 1 EnMin= -109.556526634261     IErMin= 1 ErrMin= 2.13D-02
 ErrMax= 2.13D-02  0.00D+00 EMaxC= 1.00D-01 BMatC= 1.53D-02 BMatP= 1.53D-02
 IDIUse=3 WtCom= 7.87D-01 WtEn= 2.13D-01
 Coeff-Com:  0.100D+01
 Coeff-En:   0.100D+01
 Coeff:      0.100D+01
 Gap=     0.406 Goal=   None    Shift=    0.000
 GapD=    0.406 DampG=2.000 DampE=0.500 DampFc=1.0000 IDamp=-1.
 RMSDP=1.68D-03 MaxDP=2.63D-02              OVMax= 3.13D-02

 Cycle   2  Pass 0  IDiag  1:
 E= -109.561455206181     Delta-E=       -0.004928571920 Rises=F Damp=F
 DIIS: error= 9.40D-03 at cycle   2 NSaved=   2.
 NSaved= 2 IEnMin= 2 EnMin= -109.561455206181     IErMin= 2 ErrMin= 9.40D-03
 ErrMax= 9.40D-03  0.00D+00 EMaxC= 1.00D-01 BMatC= 2.53D-03 BMatP= 1.53D-02
 IDIUse=3 WtCom= 9.06D-01 WtEn= 9.40D-02
 Coeff-Com:  0.261D+00 0.739D+00
 Coeff-En:   0.000D+00 0.100D+01
 Coeff:      0.236D+00 0.764D+00
 Gap=     0.408 Goal=   None    Shift=    0.000
 RMSDP=1.11D-03 MaxDP=1.68D-02 DE=-4.93D-03 OVMax= 1.83D-02

 Cycle   3  Pass 0  IDiag  1:
 E= -109.563261034032     Delta-E=       -0.001805827851 Rises=F Damp=F
 DIIS: error= 2.88D-03 at cycle   3 NSaved=   3.
 NSaved= 3 IEnMin= 3 EnMin= -109.563261034032     IErMin= 3 ErrMin= 2.88D-03
 ErrMax= 2.88D-03  0.00D+00 EMaxC= 1.00D-01 BMatC= 2.58D-04 BMatP= 2.53D-03
 IDIUse=3 WtCom= 9.71D-01 WtEn= 2.88D-02
 Coeff-Com:  0.215D-02 0.244D+00 0.754D+00
 Coeff-En:   0.000D+00 0.000D+00 0.100D+01
 Coeff:      0.209D-02 0.236D+00 0.761D+00
 Gap=     0.406 Goal=   None    Shift=    0.000
 RMSDP=2.86D-04 MaxDP=3.97D-03 DE=-1.81D-03 OVMax= 4.53D-03

 Cycle   4  Pass 0  IDiag  1:
 E= -109.563479889000     Delta-E=       -0.000218854968 Rises=F Damp=F
 DIIS: error= 1.70D-04 at cycle   4 NSaved=   4.
 NSaved= 4 IEnMin= 4 EnMin= -109.563479889000     IErMin= 4 ErrMin= 1.70D-04
 ErrMax= 1.70D-04  0.00D+00 EMaxC= 1.00D-01 BMatC= 6.29D-07 BMatP= 2.58D-04
 IDIUse=3 WtCom= 9.98D-01 WtEn= 1.70D-03
 Coeff-Com: -0.635D-04 0.411D-01 0.160D+00 0.799D+00
 Coeff-En:   0.000D+00 0.000D+00 0.000D+00 0.100D+01
 Coeff:     -0.634D-04 0.410D-01 0.159D+00 0.800D+00
 Gap=     0.406 Goal=   None    Shift=    0.000
 RMSDP=9.21D-06 MaxDP=1.23D-04 DE=-2.19D-04 OVMax= 1.72D-04

 Initial convergence to 1.0D-05 achieved.  Increase integral accuracy.
 Cycle   5  Pass 1  IDiag  1:
 E= -109.563480094570     Delta-E=       -0.000000205570 Rises=F Damp=F
 DIIS: error= 1.33D-05 at cycle   1 NSaved=   1.
 NSaved= 1 IEnMin= 1 EnMin= -109.563480094570     IErMin= 1 ErrMin= 1.33D-05
 ErrMax= 1.33D-05  0.00D+00 EMaxC= 1.00D-01 BMatC= 3.77D-09 BMatP= 3.77D-09
 IDIUse=1 WtCom= 1.00D+00 WtEn= 0.00D+00
 Coeff-Com:  0.100D+01
 Coeff:      0.100D+01
 Gap=     0.406 Goal=   None    Shift=    0.000
 RMSDP=9.21D-06 MaxDP=1.23D-04 DE=-2.06D-07 OVMax= 3.80D-05

 Cycle   6  Pass 1  IDiag  1:
 E= -109.563480096703     Delta-E=       -0.000000002133 Rises=F Damp=F
 DIIS: error= 7.01D-06 at cycle   2 NSaved=   2.
 NSaved= 2 IEnMin= 2 EnMin= -109.563480096703     IErMin= 2 ErrMin= 7.01D-06
 ErrMax= 7.01D-06  0.00D+00 EMaxC= 1.00D-01 BMatC= 1.39D-09 BMatP= 3.77D-09
 IDIUse=1 WtCom= 1.00D+00 WtEn= 0.00D+00
 Coeff-Com:  0.373D+00 0.627D+00
 Coeff:      0.373D+00 0.627D+00
 Gap=     0.406 Goal=   None    Shift=    0.000
 RMSDP=7.38D-07 MaxDP=9.99D-06 DE=-2.13D-09 OVMax= 1.11D-05

 Cycle   7  Pass 1  IDiag  1:
 E= -109.563480097835     Delta-E=       -0.000000001131 Rises=F Damp=F
 DIIS: error= 9.38D-07 at cycle   3 NSaved=   3.
 NSaved= 3 IEnMin= 3 EnMin= -109.563480097835     IErMin= 3 ErrMin= 9.38D-07
 ErrMax= 9.38D-07  0.00D+00 EMaxC= 1.00D-01 BMatC= 1.80D-11 BMatP= 1.39D-09
 IDIUse=1 WtCom= 1.00D+00 WtEn= 0.00D+00
 Coeff-Com:  0.973D-01 0.187D+00 0.715D+00
 Coeff:      0.973D-01 0.187D+00 0.715D+00
 Gap=     0.406 Goal=   None    Shift=    0.000
 RMSDP=5.78D-08 MaxDP=7.48D-07 DE=-1.13D-09 OVMax= 1.05D-06

 Cycle   8  Pass 1  IDiag  1:
 E= -109.563480097846     Delta-E=       -0.000000000012 Rises=F Damp=F
 DIIS: error= 5.82D-08 at cycle   4 NSaved=   4.
 NSaved= 4 IEnMin= 4 EnMin= -109.563480097846     IErMin= 4 ErrMin= 5.82D-08
 ErrMax= 5.82D-08  0.00D+00 EMaxC= 1.00D-01 BMatC= 6.27D-14 BMatP= 1.80D-11
 IDIUse=1 WtCom= 1.00D+00 WtEn= 0.00D+00
 Coeff-Com: -0.784D-02-0.174D-01-0.132D-01 0.104D+01
 Coeff:     -0.784D-02-0.174D-01-0.132D-01 0.104D+01
 Gap=     0.406 Goal=   None    Shift=    0.000
 RMSDP=8.75D-09 MaxDP=1.01D-07 DE=-1.16D-11 OVMax= 1.60D-07

 SCF Done:  E(RB3LYP) =  -109.563480098     A.U. after    8 cycles
            NFock=  8  Conv=0.88D-08     -V/T= 2.0030
 KE= 1.092304434649D+02 PE=-3.039967310022D+02 EE= 6.145767618022D+01
 Leave Link  502 at Fri Sep  6 09:50:25 2024, MaxMem=   104857600 cpu:               0.3 elap:               0.3
 (Enter /Users/asuyarger/Applications/G16/g16/l601.exe)
 Copying SCF densities to generalized density rwf, IOpCl= 0 IROHF=0.

 **********************************************************************

            Population analysis using the SCF density.

 **********************************************************************

 Orbital symmetries:
       Occupied  (SGG) (SGU) (SGG) (SGU) (PIU) (PIU) (SGG)
       Virtual   (PIG) (PIG) (SGG) (SGU) (PIU) (PIU) (SGG) (PIG)
                 (PIG) (SGU) (SGU) (SGG) (PIU) (PIU) (PIG) (PIG)
                 (DLTG) (DLTG) (SGU) (SGG) (PIU) (PIU) (SGU) (DLTU)
                 (DLTU) (PIG) (PIG) (SGG) (SGU) (PIU) (PIU) (PIG)
                 (PIG) (SGG) (PIU) (PIU) (SGG) (DLTG) (DLTG) (SGU)
                 (DLTU) (DLTU) (PIG) (PIG) (SGU) (SGG) (SGU)
 The electronic state is 1-SGG.
 Alpha  occ. eigenvalues --  -14.42192 -14.42010  -1.14008  -0.55981  -0.47660
 Alpha  occ. eigenvalues --   -0.47660  -0.44173
 Alpha virt. eigenvalues --   -0.03534  -0.03534   0.06313   0.07835   0.09118
 Alpha virt. eigenvalues --    0.09118   0.14141   0.17222   0.17222   0.25913
 Alpha virt. eigenvalues --    0.49414   0.66239   0.69691   0.69691   0.80091
 Alpha virt. eigenvalues --    0.80091   0.80744   0.80744   0.84805   0.86906
 Alpha virt. eigenvalues --    1.08185   1.08185   1.18789   1.23655   1.23655
 Alpha virt. eigenvalues --    1.74903   1.74903   1.81619   1.99360   3.64709
 Alpha virt. eigenvalues --    3.64709   3.92692   3.92692   3.99939   4.34253
 Alpha virt. eigenvalues --    4.34253   4.35709   4.58530   4.58530   4.64575
 Alpha virt. eigenvalues --    4.75082   4.75082   5.23159   5.23159   6.21802
 Alpha virt. eigenvalues --   35.08796  36.00771
     Molecular Orbital Coefficients:
                           1         2         3         4         5
                       (SGG)--O  (SGU)--O  (SGG)--O  (SGU)--O  (PIU)--O
     Eigenvalues --   -14.42192 -14.42010  -1.14008  -0.55981  -0.47660
   1 1   N  1S          0.39392   0.39408  -0.09036  -0.08410   0.00000
   2        2S          0.32965   0.32929  -0.14124  -0.13562   0.00000
   3        2PX         0.00000   0.00000   0.00000   0.00000   0.20768
   4        2PY         0.00000   0.00000   0.00000   0.00000   0.00000
   5        2PZ        -0.00131  -0.00034  -0.11693   0.09804   0.00000
   6        3S          0.01077   0.01222   0.38894   0.40056   0.00000
   7        3PX         0.00000   0.00000   0.00000   0.00000   0.30762
   8        3PY         0.00000   0.00000   0.00000   0.00000   0.00000
   9        3PZ        -0.00001  -0.00499  -0.14513   0.12868   0.00000
  10        4S         -0.00473   0.00148   0.16026   0.48670   0.00000
  11        4PX         0.00000   0.00000   0.00000   0.00000   0.20539
  12        4PY         0.00000   0.00000   0.00000   0.00000   0.00000
  13        4PZ         0.00134  -0.00241  -0.03072   0.04692   0.00000
  14        5S          0.00116   0.01962  -0.00554  -0.19726   0.00000
  15        5PX         0.00000   0.00000   0.00000   0.00000   0.01183
  16        5PY         0.00000   0.00000   0.00000   0.00000   0.00000
  17        5PZ        -0.00106  -0.00478   0.00533   0.06657   0.00000
  18        6D 0        0.00036   0.00100   0.01809  -0.00403   0.00000
  19        6D+1        0.00000   0.00000   0.00000   0.00000  -0.01797
  20        6D-1        0.00000   0.00000   0.00000   0.00000   0.00000
  21        6D+2        0.00000  -0.00000   0.00000   0.00000   0.00000
  22        6D-2        0.00000   0.00000   0.00000   0.00000   0.00000
  23        7D 0       -0.00132   0.00239   0.01015  -0.00543   0.00000
  24        7D+1        0.00000   0.00000   0.00000   0.00000  -0.03360
  25        7D-1        0.00000   0.00000   0.00000   0.00000   0.00000
  26        7D+2        0.00000  -0.00000  -0.00000   0.00000   0.00000
  27        7D-2        0.00000   0.00000   0.00000   0.00000   0.00000
  28 2   N  1S          0.39392  -0.39408  -0.09036   0.08410   0.00000
  29        2S          0.32965  -0.32929  -0.14124   0.13562   0.00000
  30        2PX         0.00000   0.00000   0.00000   0.00000   0.20768
  31        2PY         0.00000   0.00000   0.00000   0.00000   0.00000
  32        2PZ         0.00131  -0.00034   0.11693   0.09804   0.00000
  33        3S          0.01077  -0.01222   0.38894  -0.40056   0.00000
  34        3PX         0.00000   0.00000   0.00000   0.00000   0.30762
  35        3PY         0.00000   0.00000   0.00000   0.00000   0.00000
  36        3PZ         0.00001  -0.00499   0.14513   0.12868   0.00000
  37        4S         -0.00473  -0.00148   0.16026  -0.48670   0.00000
  38        4PX         0.00000   0.00000   0.00000   0.00000   0.20539
  39        4PY         0.00000   0.00000   0.00000   0.00000   0.00000
  40        4PZ        -0.00134  -0.00241   0.03072   0.04692   0.00000
  41        5S          0.00116  -0.01962  -0.00554   0.19726   0.00000
  42        5PX         0.00000   0.00000   0.00000   0.00000   0.01183
  43        5PY         0.00000   0.00000   0.00000   0.00000   0.00000
  44        5PZ         0.00106  -0.00478  -0.00533   0.06657   0.00000
  45        6D 0        0.00036  -0.00100   0.01809   0.00403   0.00000
  46        6D+1        0.00000   0.00000   0.00000   0.00000   0.01797
  47        6D-1        0.00000   0.00000   0.00000   0.00000   0.00000
  48        6D+2        0.00000   0.00000   0.00000  -0.00000   0.00000
  49        6D-2        0.00000   0.00000   0.00000   0.00000   0.00000
  50        7D 0       -0.00132  -0.00239   0.01015   0.00543   0.00000
  51        7D+1        0.00000   0.00000   0.00000   0.00000   0.03360
  52        7D-1        0.00000   0.00000   0.00000   0.00000   0.00000
  53        7D+2        0.00000   0.00000  -0.00000  -0.00000   0.00000
  54        7D-2        0.00000   0.00000   0.00000   0.00000   0.00000
                           6         7         8         9        10
                       (PIU)--O  (SGG)--O  (PIG)--V  (PIG)--V  (SGG)--V
     Eigenvalues --    -0.47660  -0.44173  -0.03534  -0.03534   0.06313
   1 1   N  1S          0.00000  -0.03037   0.00000   0.00000   0.02669
   2        2S          0.00000  -0.04850   0.00000   0.00000   0.04262
   3        2PX         0.00000   0.00000   0.00000   0.21947   0.00000
   4        2PY         0.20768   0.00000   0.21947   0.00000   0.00000
   5        2PZ         0.00000   0.22010   0.00000   0.00000  -0.06195
   6        3S          0.00000   0.13247   0.00000   0.00000  -0.12536
   7        3PX         0.00000   0.00000   0.00000   0.33343   0.00000
   8        3PY         0.30762   0.00000   0.33343   0.00000   0.00000
   9        3PZ         0.00000   0.29864   0.00000   0.00000  -0.05701
  10        4S          0.00000   0.26910   0.00000   0.00000  -0.61455
  11        4PX         0.00000   0.00000   0.00000   0.43894   0.00000
  12        4PY         0.20539   0.00000   0.43894   0.00000   0.00000
  13        4PZ         0.00000   0.17323   0.00000   0.00000  -0.23507
  14        5S          0.00000   0.05095   0.00000   0.00000   0.90330
  15        5PX         0.00000   0.00000   0.00000   0.41743   0.00000
  16        5PY         0.01183   0.00000   0.41743   0.00000   0.00000
  17        5PZ         0.00000   0.00864   0.00000   0.00000   0.37272
  18        6D 0        0.00000  -0.01724   0.00000   0.00000  -0.00219
  19        6D+1        0.00000   0.00000   0.00000   0.00854   0.00000
  20        6D-1       -0.01797   0.00000   0.00854   0.00000   0.00000
  21        6D+2        0.00000  -0.00000   0.00000   0.00000   0.00000
  22        6D-2        0.00000   0.00000   0.00000   0.00000   0.00000
  23        7D 0        0.00000  -0.00916   0.00000   0.00000   0.01395
  24        7D+1        0.00000   0.00000   0.00000   0.02222   0.00000
  25        7D-1       -0.03360   0.00000   0.02222   0.00000   0.00000
  26        7D+2        0.00000  -0.00000   0.00000   0.00000  -0.00000
  27        7D-2        0.00000   0.00000   0.00000   0.00000   0.00000
  28 2   N  1S          0.00000  -0.03037   0.00000   0.00000   0.02669
  29        2S          0.00000  -0.04850   0.00000   0.00000   0.04262
  30        2PX         0.00000   0.00000   0.00000  -0.21947   0.00000
  31        2PY         0.20768   0.00000  -0.21947   0.00000   0.00000
  32        2PZ         0.00000  -0.22010   0.00000   0.00000   0.06195
  33        3S          0.00000   0.13247   0.00000   0.00000  -0.12536
  34        3PX         0.00000   0.00000   0.00000  -0.33343   0.00000
  35        3PY         0.30762   0.00000  -0.33343   0.00000   0.00000
  36        3PZ         0.00000  -0.29864   0.00000   0.00000   0.05701
  37        4S          0.00000   0.26910   0.00000   0.00000  -0.61455
  38        4PX         0.00000   0.00000   0.00000  -0.43894   0.00000
  39        4PY         0.20539   0.00000  -0.43894   0.00000   0.00000
  40        4PZ         0.00000  -0.17323   0.00000   0.00000   0.23507
  41        5S          0.00000   0.05095   0.00000   0.00000   0.90330
  42        5PX         0.00000   0.00000   0.00000  -0.41743   0.00000
  43        5PY         0.01183   0.00000  -0.41743   0.00000   0.00000
  44        5PZ         0.00000  -0.00864   0.00000   0.00000  -0.37272
  45        6D 0        0.00000  -0.01724   0.00000   0.00000  -0.00219
  46        6D+1        0.00000   0.00000   0.00000   0.00854   0.00000
  47        6D-1        0.01797   0.00000   0.00854   0.00000   0.00000
  48        6D+2        0.00000  -0.00000   0.00000   0.00000   0.00000
  49        6D-2        0.00000   0.00000   0.00000   0.00000   0.00000
  50        7D 0        0.00000  -0.00916   0.00000   0.00000   0.01395
  51        7D+1        0.00000   0.00000   0.00000   0.02222   0.00000
  52        7D-1        0.03360   0.00000   0.02222   0.00000   0.00000
  53        7D+2        0.00000  -0.00000   0.00000   0.00000  -0.00000
  54        7D-2        0.00000   0.00000   0.00000   0.00000   0.00000
                          11        12        13        14        15
                       (SGU)--V  (PIU)--V  (PIU)--V  (SGG)--V  (PIG)--V
     Eigenvalues --     0.07835   0.09118   0.09118   0.14141   0.17222
   1 1   N  1S         -0.02298   0.00000   0.00000  -0.01129   0.00000
   2        2S         -0.03795   0.00000   0.00000  -0.01722   0.00000
   3        2PX         0.00000   0.00000  -0.07425   0.00000   0.00000
   4        2PY         0.00000  -0.07425   0.00000   0.00000  -0.11202
   5        2PZ         0.01610   0.00000   0.00000  -0.02659   0.00000
   6        3S          0.13634   0.00000   0.00000   0.02429   0.00000
   7        3PX         0.00000   0.00000  -0.07890   0.00000   0.00000
   8        3PY         0.00000  -0.07890   0.00000   0.00000  -0.14296
   9        3PZ         0.05705   0.00000   0.00000  -0.01569   0.00000
  10        4S         -0.61832   0.00000   0.00000   0.39476   0.00000
  11        4PX         0.00000   0.00000  -0.23156   0.00000   0.00000
  12        4PY         0.00000  -0.23156   0.00000   0.00000  -0.52395
  13        4PZ         0.53816   0.00000   0.00000  -0.05992   0.00000
  14        5S         12.10990   0.00000   0.00000  -0.02669   0.00000
  15        5PX         0.00000   0.00000   0.63385   0.00000   0.00000
  16        5PY         0.00000   0.63385   0.00000   0.00000   2.24471
  17        5PZ        -3.98698   0.00000   0.00000   1.55249   0.00000
  18        6D 0       -0.00109   0.00000   0.00000   0.01080   0.00000
  19        6D+1        0.00000   0.00000   0.00833   0.00000   0.00000
  20        6D-1        0.00000   0.00833   0.00000   0.00000  -0.00474
  21        6D+2        0.00000   0.00000   0.00000  -0.00000   0.00000
  22        6D-2        0.00000   0.00000   0.00000   0.00000   0.00000
  23        7D 0       -0.07182   0.00000   0.00000   0.02997   0.00000
  24        7D+1        0.00000   0.00000   0.01540   0.00000   0.00000
  25        7D-1        0.00000   0.01540   0.00000   0.00000   0.03834
  26        7D+2        0.00000   0.00000   0.00000   0.00000   0.00000
  27        7D-2        0.00000   0.00000   0.00000   0.00000   0.00000
  28 2   N  1S          0.02298   0.00000   0.00000  -0.01129   0.00000
  29        2S          0.03795   0.00000   0.00000  -0.01722   0.00000
  30        2PX         0.00000   0.00000  -0.07425   0.00000   0.00000
  31        2PY         0.00000  -0.07425   0.00000   0.00000   0.11202
  32        2PZ         0.01610   0.00000   0.00000   0.02659   0.00000
  33        3S         -0.13634   0.00000   0.00000   0.02429   0.00000
  34        3PX         0.00000   0.00000  -0.07890   0.00000   0.00000
  35        3PY         0.00000  -0.07890   0.00000   0.00000   0.14296
  36        3PZ         0.05705   0.00000   0.00000   0.01569   0.00000
  37        4S          0.61832   0.00000   0.00000   0.39476   0.00000
  38        4PX         0.00000   0.00000  -0.23156   0.00000   0.00000
  39        4PY         0.00000  -0.23156   0.00000   0.00000   0.52395
  40        4PZ         0.53816   0.00000   0.00000   0.05992   0.00000
  41        5S        -12.10990   0.00000   0.00000  -0.02669   0.00000
  42        5PX         0.00000   0.00000   0.63385   0.00000   0.00000
  43        5PY         0.00000   0.63385   0.00000   0.00000  -2.24471
  44        5PZ        -3.98698   0.00000   0.00000  -1.55249   0.00000
  45        6D 0        0.00109   0.00000   0.00000   0.01080   0.00000
  46        6D+1        0.00000   0.00000  -0.00833   0.00000   0.00000
  47        6D-1        0.00000  -0.00833   0.00000   0.00000  -0.00474
  48        6D+2       -0.00000   0.00000   0.00000  -0.00000   0.00000
  49        6D-2        0.00000   0.00000   0.00000   0.00000   0.00000
  50        7D 0        0.07182   0.00000   0.00000   0.02997   0.00000
  51        7D+1        0.00000   0.00000  -0.01540   0.00000   0.00000
  52        7D-1        0.00000  -0.01540   0.00000   0.00000   0.03834
  53        7D+2       -0.00000   0.00000   0.00000   0.00000   0.00000
  54        7D-2        0.00000   0.00000   0.00000   0.00000   0.00000
                          16        17        18        19        20
                       (PIG)--V  (SGU)--V  (SGU)--V  (SGG)--V  (PIU)--V
     Eigenvalues --     0.17222   0.25913   0.49414   0.66239   0.69691
   1 1   N  1S          0.00000   0.01775  -0.04798  -0.00242   0.00000
   2        2S          0.00000   0.02826  -0.08303  -0.01085   0.00000
   3        2PX        -0.11202   0.00000   0.00000   0.00000   0.00000
   4        2PY         0.00000   0.00000   0.00000   0.00000  -0.15362
   5        2PZ         0.00000  -0.04047  -0.08559  -0.11593   0.00000
   6        3S          0.00000  -0.05392   0.21699   0.27128   0.00000
   7        3PX        -0.14296   0.00000   0.00000   0.00000   0.00000
   8        3PY         0.00000   0.00000   0.00000   0.00000  -0.54785
   9        3PZ         0.00000   0.00982  -0.32121  -0.44359   0.00000
  10        4S          0.00000  -0.71172   6.88141  -0.01042   0.00000
  11        4PX        -0.52395   0.00000   0.00000   0.00000   0.00000
  12        4PY         0.00000   0.00000   0.00000   0.00000   0.98886
  13        4PZ         0.00000  -0.33130  -4.20891   1.33396   0.00000
  14        5S          0.00000  40.38582  -5.02311  -0.15338   0.00000
  15        5PX         2.24471   0.00000   0.00000   0.00000   0.00000
  16        5PY         0.00000   0.00000   0.00000   0.00000  -0.45160
  17        5PZ         0.00000 -10.66517   1.82543  -1.04617   0.00000
  18        6D 0        0.00000  -0.00454  -0.03231   0.03807   0.00000
  19        6D+1       -0.00474   0.00000   0.00000   0.00000   0.00000
  20        6D-1        0.00000   0.00000   0.00000   0.00000   0.01724
  21        6D+2        0.00000   0.00000  -0.00000  -0.00000   0.00000
  22        6D-2        0.00000   0.00000   0.00000   0.00000   0.00000
  23        7D 0        0.00000  -0.01710   0.22758   0.00656   0.00000
  24        7D+1        0.03834   0.00000   0.00000   0.00000   0.00000
  25        7D-1        0.00000   0.00000   0.00000   0.00000   0.13186
  26        7D+2        0.00000   0.00000  -0.00000   0.00000   0.00000
  27        7D-2        0.00000   0.00000   0.00000   0.00000   0.00000
  28 2   N  1S          0.00000  -0.01775   0.04798  -0.00242   0.00000
  29        2S          0.00000  -0.02826   0.08303  -0.01085   0.00000
  30        2PX         0.11202   0.00000   0.00000   0.00000   0.00000
  31        2PY         0.00000   0.00000   0.00000   0.00000  -0.15362
  32        2PZ         0.00000  -0.04047  -0.08559   0.11593   0.00000
  33        3S          0.00000   0.05392  -0.21699   0.27128   0.00000
  34        3PX         0.14296   0.00000   0.00000   0.00000   0.00000
  35        3PY         0.00000   0.00000   0.00000   0.00000  -0.54785
  36        3PZ         0.00000   0.00982  -0.32121   0.44359   0.00000
  37        4S          0.00000   0.71172  -6.88141  -0.01042   0.00000
  38        4PX         0.52395   0.00000   0.00000   0.00000   0.00000
  39        4PY         0.00000   0.00000   0.00000   0.00000   0.98886
  40        4PZ         0.00000  -0.33130  -4.20891  -1.33396   0.00000
  41        5S          0.00000 -40.38582   5.02311  -0.15338   0.00000
  42        5PX        -2.24471   0.00000   0.00000   0.00000   0.00000
  43        5PY         0.00000   0.00000   0.00000   0.00000  -0.45160
  44        5PZ         0.00000 -10.66517   1.82543   1.04617   0.00000
  45        6D 0        0.00000   0.00454   0.03231   0.03807   0.00000
  46        6D+1       -0.00474   0.00000   0.00000   0.00000   0.00000
  47        6D-1        0.00000   0.00000   0.00000   0.00000  -0.01724
  48        6D+2        0.00000  -0.00000   0.00000  -0.00000   0.00000
  49        6D-2        0.00000   0.00000   0.00000   0.00000   0.00000
  50        7D 0        0.00000   0.01710  -0.22758   0.00656   0.00000
  51        7D+1        0.03834   0.00000   0.00000   0.00000   0.00000
  52        7D-1        0.00000   0.00000   0.00000   0.00000  -0.13186
  53        7D+2        0.00000  -0.00000   0.00000   0.00000   0.00000
  54        7D-2        0.00000   0.00000   0.00000   0.00000   0.00000
                          21        22        23        24        25
                       (PIU)--V  (PIG)--V  (PIG)--V  (DLTG)--  (DLTG)--
     Eigenvalues --     0.69691   0.80091   0.80091   0.80744   0.80744
   1 1   N  1S          0.00000   0.00000   0.00000  -0.00000   0.00000
   2        2S          0.00000   0.00000   0.00000  -0.00000   0.00000
   3        2PX        -0.15362   0.00000  -0.19092   0.00000   0.00000
   4        2PY         0.00000  -0.19092   0.00000   0.00000   0.00000
   5        2PZ         0.00000   0.00000   0.00000   0.00000   0.00000
   6        3S          0.00000   0.00000   0.00000   0.00000   0.00000
   7        3PX        -0.54785   0.00000  -0.57345   0.00000   0.00000
   8        3PY         0.00000  -0.57345   0.00000   0.00000   0.00000
   9        3PZ         0.00000   0.00000   0.00000   0.00000   0.00000
  10        4S          0.00000   0.00000   0.00000  -0.00000   0.00000
  11        4PX         0.98886   0.00000   1.91564   0.00000   0.00000
  12        4PY         0.00000   1.91564   0.00000   0.00000   0.00000
  13        4PZ         0.00000   0.00000   0.00000  -0.00000   0.00000
  14        5S          0.00000   0.00000   0.00000   0.00000   0.00000
  15        5PX        -0.45160   0.00000  -1.30379   0.00000   0.00000
  16        5PY         0.00000  -1.30379   0.00000   0.00000   0.00000
  17        5PZ         0.00000   0.00000   0.00000   0.00000   0.00000
  18        6D 0        0.00000   0.00000   0.00000   0.00000   0.00000
  19        6D+1        0.01724   0.00000   0.01709   0.00000   0.00000
  20        6D-1        0.00000   0.01709   0.00000   0.00000   0.00000
  21        6D+2        0.00000   0.00000   0.00000   0.01082   0.00000
  22        6D-2        0.00000   0.00000   0.00000   0.00000   0.01082
  23        7D 0        0.00000   0.00000   0.00000   0.00000   0.00000
  24        7D+1        0.13186   0.00000  -0.19859   0.00000   0.00000
  25        7D-1        0.00000  -0.19859   0.00000   0.00000   0.00000
  26        7D+2        0.00000   0.00000   0.00000   0.59788   0.00000
  27        7D-2        0.00000   0.00000   0.00000   0.00000   0.59788
  28 2   N  1S          0.00000   0.00000   0.00000  -0.00000   0.00000
  29        2S          0.00000   0.00000   0.00000  -0.00000   0.00000
  30        2PX        -0.15362   0.00000   0.19092   0.00000   0.00000
  31        2PY         0.00000   0.19092   0.00000   0.00000   0.00000
  32        2PZ         0.00000   0.00000   0.00000  -0.00000   0.00000
  33        3S          0.00000   0.00000   0.00000   0.00000   0.00000
  34        3PX        -0.54785   0.00000   0.57345   0.00000   0.00000
  35        3PY         0.00000   0.57345   0.00000   0.00000   0.00000
  36        3PZ         0.00000   0.00000   0.00000  -0.00000   0.00000
  37        4S          0.00000   0.00000   0.00000  -0.00000   0.00000
  38        4PX         0.98886   0.00000  -1.91564   0.00000   0.00000
  39        4PY         0.00000  -1.91564   0.00000   0.00000   0.00000
  40        4PZ         0.00000   0.00000   0.00000   0.00000   0.00000
  41        5S          0.00000   0.00000   0.00000   0.00000   0.00000
  42        5PX        -0.45160   0.00000   1.30379   0.00000   0.00000
  43        5PY         0.00000   1.30379   0.00000   0.00000   0.00000
  44        5PZ         0.00000   0.00000   0.00000  -0.00000   0.00000
  45        6D 0        0.00000   0.00000   0.00000   0.00000   0.00000
  46        6D+1       -0.01724   0.00000   0.01709   0.00000   0.00000
  47        6D-1        0.00000   0.01709   0.00000   0.00000   0.00000
  48        6D+2        0.00000   0.00000   0.00000   0.01082   0.00000
  49        6D-2        0.00000   0.00000   0.00000   0.00000   0.01082
  50        7D 0        0.00000   0.00000   0.00000   0.00000   0.00000
  51        7D+1       -0.13186   0.00000  -0.19859   0.00000   0.00000
  52        7D-1        0.00000  -0.19859   0.00000   0.00000   0.00000
  53        7D+2        0.00000   0.00000   0.00000   0.59788   0.00000
  54        7D-2        0.00000   0.00000   0.00000   0.00000   0.59788
                          26        27        28        29        30
                       (SGU)--V  (SGG)--V  (PIU)--V  (PIU)--V  (SGU)--V
     Eigenvalues --     0.84805   0.86906   1.08185   1.08185   1.18789
   1 1   N  1S          0.01353   0.07734   0.00000   0.00000  -0.08696
   2        2S          0.01888   0.15209   0.00000   0.00000  -0.16888
   3        2PX         0.00000   0.00000   0.00000   0.08527   0.00000
   4        2PY         0.00000   0.00000   0.08527   0.00000   0.00000
   5        2PZ         0.30306  -0.06025   0.00000   0.00000  -0.07904
   6        3S          0.02891  -1.04003   0.00000   0.00000   1.40685
   7        3PX         0.00000   0.00000   0.00000   0.33353   0.00000
   8        3PY         0.00000   0.00000   0.33353   0.00000   0.00000
   9        3PZ         0.42414  -0.24803   0.00000   0.00000   0.51358
  10        4S          4.34640   1.59610   0.00000   0.00000 -10.42031
  11        4PX         0.00000   0.00000   0.00000  -0.11930   0.00000
  12        4PY         0.00000   0.00000  -0.11930   0.00000   0.00000
  13        4PZ        -3.19678   0.41894   0.00000   0.00000   4.17807
  14        5S          5.41424  -0.65138   0.00000   0.00000  19.36783
  15        5PX         0.00000   0.00000   0.00000   0.01864   0.00000
  16        5PY         0.00000   0.00000   0.01864   0.00000   0.00000
  17        5PZ        -1.03938   0.19207   0.00000   0.00000  -5.11180
  18        6D 0        0.01260  -0.00933   0.00000   0.00000  -0.01917
  19        6D+1        0.00000   0.00000   0.00000   0.02042   0.00000
  20        6D-1        0.00000   0.00000   0.02042   0.00000   0.00000
  21        6D+2        0.00000   0.00000   0.00000   0.00000   0.00000
  22        6D-2        0.00000   0.00000   0.00000   0.00000   0.00000
  23        7D 0        0.54351  -0.27672   0.00000   0.00000  -0.55606
  24        7D+1        0.00000   0.00000   0.00000   0.62785   0.00000
  25        7D-1        0.00000   0.00000   0.62785   0.00000   0.00000
  26        7D+2       -0.00000   0.00000   0.00000   0.00000   0.00000
  27        7D-2        0.00000   0.00000   0.00000   0.00000   0.00000
  28 2   N  1S         -0.01353   0.07734   0.00000   0.00000   0.08696
  29        2S         -0.01888   0.15209   0.00000   0.00000   0.16888
  30        2PX         0.00000   0.00000   0.00000   0.08527   0.00000
  31        2PY         0.00000   0.00000   0.08527   0.00000   0.00000
  32        2PZ         0.30306   0.06025   0.00000   0.00000  -0.07904
  33        3S         -0.02891  -1.04003   0.00000   0.00000  -1.40685
  34        3PX         0.00000   0.00000   0.00000   0.33353   0.00000
  35        3PY         0.00000   0.00000   0.33353   0.00000   0.00000
  36        3PZ         0.42414   0.24803   0.00000   0.00000   0.51358
  37        4S         -4.34640   1.59610   0.00000   0.00000  10.42031
  38        4PX         0.00000   0.00000   0.00000  -0.11930   0.00000
  39        4PY         0.00000   0.00000  -0.11930   0.00000   0.00000
  40        4PZ        -3.19678  -0.41894   0.00000   0.00000   4.17807
  41        5S         -5.41424  -0.65138   0.00000   0.00000 -19.36783
  42        5PX         0.00000   0.00000   0.00000   0.01864   0.00000
  43        5PY         0.00000   0.00000   0.01864   0.00000   0.00000
  44        5PZ        -1.03938  -0.19207   0.00000   0.00000  -5.11180
  45        6D 0       -0.01260  -0.00933   0.00000   0.00000   0.01917
  46        6D+1        0.00000   0.00000   0.00000  -0.02042   0.00000
  47        6D-1        0.00000   0.00000  -0.02042   0.00000   0.00000
  48        6D+2       -0.00000   0.00000   0.00000   0.00000  -0.00000
  49        6D-2        0.00000   0.00000   0.00000   0.00000   0.00000
  50        7D 0       -0.54351  -0.27672   0.00000   0.00000   0.55606
  51        7D+1        0.00000   0.00000   0.00000  -0.62785   0.00000
  52        7D-1        0.00000   0.00000  -0.62785   0.00000   0.00000
  53        7D+2        0.00000   0.00000   0.00000   0.00000  -0.00000
  54        7D-2        0.00000   0.00000   0.00000   0.00000   0.00000
                          31        32        33        34        35
                       (DLTU)--  (DLTU)--  (PIG)--V  (PIG)--V  (SGG)--V
     Eigenvalues --     1.23655   1.23655   1.74903   1.74903   1.81619
   1 1   N  1S          0.00000   0.00000   0.00000   0.00000  -0.03928
   2        2S          0.00000   0.00000   0.00000   0.00000  -0.10171
   3        2PX         0.00000   0.00000   0.00000  -0.08824   0.00000
   4        2PY         0.00000   0.00000  -0.08824   0.00000   0.00000
   5        2PZ         0.00000   0.00000   0.00000   0.00000   0.05021
   6        3S         -0.00000   0.00000   0.00000   0.00000   1.67968
   7        3PX         0.00000   0.00000   0.00000  -0.38580   0.00000
   8        3PY         0.00000   0.00000  -0.38580   0.00000   0.00000
   9        3PZ        -0.00000   0.00000   0.00000   0.00000  -0.53034
  10        4S          0.00000   0.00000   0.00000   0.00000  -0.71740
  11        4PX         0.00000   0.00000   0.00000  -1.62045   0.00000
  12        4PY         0.00000   0.00000  -1.62045   0.00000   0.00000
  13        4PZ        -0.00000   0.00000   0.00000   0.00000   1.41080
  14        5S         -0.00000   0.00000   0.00000   0.00000  -0.01103
  15        5PX         0.00000   0.00000   0.00000   0.47704   0.00000
  16        5PY         0.00000   0.00000   0.47704   0.00000   0.00000
  17        5PZ         0.00000   0.00000   0.00000   0.00000  -0.41587
  18        6D 0        0.00000   0.00000   0.00000   0.00000   0.00835
  19        6D+1        0.00000   0.00000   0.00000  -0.00670   0.00000
  20        6D-1        0.00000   0.00000  -0.00670   0.00000   0.00000
  21        6D+2        0.00436   0.00000   0.00000   0.00000  -0.00000
  22        6D-2        0.00000   0.00436   0.00000   0.00000   0.00000
  23        7D 0        0.00000   0.00000   0.00000   0.00000  -1.36485
  24        7D+1        0.00000   0.00000   0.00000   1.71514   0.00000
  25        7D-1        0.00000   0.00000   1.71514   0.00000   0.00000
  26        7D+2        0.89428   0.00000   0.00000   0.00000   0.00000
  27        7D-2        0.00000   0.89428   0.00000   0.00000   0.00000
  28 2   N  1S         -0.00000   0.00000   0.00000   0.00000  -0.03928
  29        2S         -0.00000   0.00000   0.00000   0.00000  -0.10171
  30        2PX         0.00000   0.00000   0.00000   0.08824   0.00000
  31        2PY         0.00000   0.00000   0.08824   0.00000   0.00000
  32        2PZ         0.00000   0.00000   0.00000   0.00000  -0.05021
  33        3S          0.00000   0.00000   0.00000   0.00000   1.67968
  34        3PX         0.00000   0.00000   0.00000   0.38580   0.00000
  35        3PY         0.00000   0.00000   0.38580   0.00000   0.00000
  36        3PZ        -0.00000   0.00000   0.00000   0.00000   0.53034
  37        4S         -0.00000   0.00000   0.00000   0.00000  -0.71740
  38        4PX         0.00000   0.00000   0.00000   1.62045   0.00000
  39        4PY         0.00000   0.00000   1.62045   0.00000   0.00000
  40        4PZ        -0.00000   0.00000   0.00000   0.00000  -1.41080
  41        5S          0.00000   0.00000   0.00000   0.00000  -0.01103
  42        5PX         0.00000   0.00000   0.00000  -0.47704   0.00000
  43        5PY         0.00000   0.00000  -0.47704   0.00000   0.00000
  44        5PZ         0.00000   0.00000   0.00000   0.00000   0.41587
  45        6D 0       -0.00000   0.00000   0.00000   0.00000   0.00835
  46        6D+1        0.00000   0.00000   0.00000  -0.00670   0.00000
  47        6D-1        0.00000   0.00000  -0.00670   0.00000   0.00000
  48        6D+2       -0.00436   0.00000   0.00000   0.00000  -0.00000
  49        6D-2        0.00000  -0.00436   0.00000   0.00000   0.00000
  50        7D 0       -0.00000   0.00000   0.00000   0.00000  -1.36485
  51        7D+1        0.00000   0.00000   0.00000   1.71514   0.00000
  52        7D-1        0.00000   0.00000   1.71514   0.00000   0.00000
  53        7D+2       -0.89428   0.00000   0.00000   0.00000   0.00000
  54        7D-2        0.00000  -0.89428   0.00000   0.00000   0.00000
                          36        37        38        39        40
                       (SGU)--V  (PIU)--V  (PIU)--V  (PIG)--V  (PIG)--V
     Eigenvalues --     1.99360   3.64709   3.64709   3.92692   3.92692
   1 1   N  1S         -0.04323   0.00000   0.00000   0.00000   0.00000
   2        2S         -0.09805   0.00000   0.00000   0.00000   0.00000
   3        2PX         0.00000   0.00000  -0.90892  -0.93044   0.00000
   4        2PY         0.00000  -0.90892   0.00000   0.00000  -0.93044
   5        2PZ        -0.27324   0.00000   0.00000   0.00000   0.00000
   6        3S          0.80269   0.00000   0.00000   0.00000   0.00000
   7        3PX         0.00000   0.00000   1.04743   1.34882   0.00000
   8        3PY         0.00000   1.04743   0.00000   0.00000   1.34882
   9        3PZ        -1.38420   0.00000   0.00000   0.00000   0.00000
  10        4S         10.25462   0.00000   0.00000   0.00000   0.00000
  11        4PX         0.00000   0.00000  -0.50526  -0.45452   0.00000
  12        4PY         0.00000  -0.50526   0.00000   0.00000  -0.45452
  13        4PZ        -5.13565   0.00000   0.00000   0.00000   0.00000
  14        5S         -3.89190   0.00000   0.00000   0.00000   0.00000
  15        5PX         0.00000   0.00000   0.15751   0.34306   0.00000
  16        5PY         0.00000   0.15751   0.00000   0.00000   0.34306
  17        5PZ         1.26477   0.00000   0.00000   0.00000   0.00000
  18        6D 0       -0.00882   0.00000   0.00000   0.00000   0.00000
  19        6D+1        0.00000   0.00000  -0.08820   0.04766   0.00000
  20        6D-1        0.00000  -0.08820   0.00000   0.00000   0.04766
  21        6D+2       -0.00000   0.00000   0.00000   0.00000   0.00000
  22        6D-2        0.00000   0.00000   0.00000   0.00000   0.00000
  23        7D 0        1.77243   0.00000   0.00000   0.00000   0.00000
  24        7D+1        0.00000   0.00000   0.12421  -0.46211   0.00000
  25        7D-1        0.00000   0.12421   0.00000   0.00000  -0.46211
  26        7D+2        0.00000   0.00000   0.00000   0.00000   0.00000
  27        7D-2        0.00000   0.00000   0.00000   0.00000   0.00000
  28 2   N  1S          0.04323   0.00000   0.00000   0.00000   0.00000
  29        2S          0.09805   0.00000   0.00000   0.00000   0.00000
  30        2PX         0.00000   0.00000  -0.90892   0.93044   0.00000
  31        2PY         0.00000  -0.90892   0.00000   0.00000   0.93044
  32        2PZ        -0.27324   0.00000   0.00000   0.00000   0.00000
  33        3S         -0.80269   0.00000   0.00000   0.00000   0.00000
  34        3PX         0.00000   0.00000   1.04743  -1.34882   0.00000
  35        3PY         0.00000   1.04743   0.00000   0.00000  -1.34882
  36        3PZ        -1.38420   0.00000   0.00000   0.00000   0.00000
  37        4S        -10.25462   0.00000   0.00000   0.00000   0.00000
  38        4PX         0.00000   0.00000  -0.50526   0.45452   0.00000
  39        4PY         0.00000  -0.50526   0.00000   0.00000   0.45452
  40        4PZ        -5.13565   0.00000   0.00000   0.00000   0.00000
  41        5S          3.89190   0.00000   0.00000   0.00000   0.00000
  42        5PX         0.00000   0.00000   0.15751  -0.34306   0.00000
  43        5PY         0.00000   0.15751   0.00000   0.00000  -0.34306
  44        5PZ         1.26477   0.00000   0.00000   0.00000   0.00000
  45        6D 0        0.00882   0.00000   0.00000   0.00000   0.00000
  46        6D+1        0.00000   0.00000   0.08820   0.04766   0.00000
  47        6D-1        0.00000   0.08820   0.00000   0.00000   0.04766
  48        6D+2        0.00000   0.00000   0.00000   0.00000   0.00000
  49        6D-2        0.00000   0.00000   0.00000   0.00000   0.00000
  50        7D 0       -1.77243   0.00000   0.00000   0.00000   0.00000
  51        7D+1        0.00000   0.00000  -0.12421  -0.46211   0.00000
  52        7D-1        0.00000  -0.12421   0.00000   0.00000  -0.46211
  53        7D+2       -0.00000   0.00000   0.00000   0.00000   0.00000
  54        7D-2        0.00000   0.00000   0.00000   0.00000   0.00000
                          41        42        43        44        45
                       (SGG)--V  (PIU)--V  (PIU)--V  (SGG)--V  (DLTG)--
     Eigenvalues --     3.99939   4.34253   4.34253   4.35709   4.58530
   1 1   N  1S         -0.00325   0.00000   0.00000   0.00672   0.00000
   2        2S          0.01383   0.00000   0.00000   0.01362   0.00000
   3        2PX         0.00000   0.00000  -0.11996   0.00000   0.00000
   4        2PY         0.00000  -0.11996   0.00000   0.00000   0.00000
   5        2PZ         0.80017   0.00000   0.00000   0.55115   0.00000
   6        3S         -0.53627   0.00000   0.00000   0.19939   0.00000
   7        3PX         0.00000   0.00000   0.11047   0.00000   0.00000
   8        3PY         0.00000   0.11047   0.00000   0.00000   0.00000
   9        3PZ        -0.78024   0.00000   0.00000  -0.57131   0.00000
  10        4S          0.24401   0.00000   0.00000   0.11611   0.00000
  11        4PX         0.00000   0.00000  -0.14532   0.00000   0.00000
  12        4PY         0.00000  -0.14532   0.00000   0.00000   0.00000
  13        4PZ         0.17492   0.00000   0.00000   0.58094   0.00000
  14        5S         -0.04256   0.00000   0.00000  -0.12309   0.00000
  15        5PX         0.00000   0.00000   0.06055   0.00000   0.00000
  16        5PY         0.00000   0.06055   0.00000   0.00000   0.00000
  17        5PZ        -0.23255   0.00000   0.00000  -0.12000   0.00000
  18        6D 0       -0.44462   0.00000   0.00000   0.61752   0.00000
  19        6D+1        0.00000   0.00000   0.78396   0.00000   0.00000
  20        6D-1        0.00000   0.78396   0.00000   0.00000   0.00000
  21        6D+2        0.00000   0.00000   0.00000   0.00000   0.00000
  22        6D-2        0.00000   0.00000   0.00000   0.00000   0.79183
  23        7D 0        0.58069   0.00000   0.00000  -0.53380   0.00000
  24        7D+1        0.00000   0.00000  -0.42373   0.00000   0.00000
  25        7D-1        0.00000  -0.42373   0.00000   0.00000   0.00000
  26        7D+2       -0.00000   0.00000   0.00000  -0.00000   0.00000
  27        7D-2        0.00000   0.00000   0.00000   0.00000  -0.32686
  28 2   N  1S         -0.00325   0.00000   0.00000   0.00672   0.00000
  29        2S          0.01383   0.00000   0.00000   0.01362   0.00000
  30        2PX         0.00000   0.00000  -0.11996   0.00000   0.00000
  31        2PY         0.00000  -0.11996   0.00000   0.00000   0.00000
  32        2PZ        -0.80017   0.00000   0.00000  -0.55115   0.00000
  33        3S         -0.53627   0.00000   0.00000   0.19939   0.00000
  34        3PX         0.00000   0.00000   0.11047   0.00000   0.00000
  35        3PY         0.00000   0.11047   0.00000   0.00000   0.00000
  36        3PZ         0.78024   0.00000   0.00000   0.57131   0.00000
  37        4S          0.24401   0.00000   0.00000   0.11611   0.00000
  38        4PX         0.00000   0.00000  -0.14532   0.00000   0.00000
  39        4PY         0.00000  -0.14532   0.00000   0.00000   0.00000
  40        4PZ        -0.17492   0.00000   0.00000  -0.58094   0.00000
  41        5S         -0.04256   0.00000   0.00000  -0.12309   0.00000
  42        5PX         0.00000   0.00000   0.06055   0.00000   0.00000
  43        5PY         0.00000   0.06055   0.00000   0.00000   0.00000
  44        5PZ         0.23255   0.00000   0.00000   0.12000   0.00000
  45        6D 0       -0.44462   0.00000   0.00000   0.61752   0.00000
  46        6D+1        0.00000   0.00000  -0.78396   0.00000   0.00000
  47        6D-1        0.00000  -0.78396   0.00000   0.00000   0.00000
  48        6D+2        0.00000   0.00000   0.00000   0.00000   0.00000
  49        6D-2        0.00000   0.00000   0.00000   0.00000   0.79183
  50        7D 0        0.58069   0.00000   0.00000  -0.53380   0.00000
  51        7D+1        0.00000   0.00000   0.42373   0.00000   0.00000
  52        7D-1        0.00000   0.42373   0.00000   0.00000   0.00000
  53        7D+2       -0.00000   0.00000   0.00000  -0.00000   0.00000
  54        7D-2        0.00000   0.00000   0.00000   0.00000  -0.32686
                          46        47        48        49        50
                       (DLTG)--  (SGU)--V  (DLTU)--  (DLTU)--  (PIG)--V
     Eigenvalues --     4.58530   4.64575   4.75082   4.75082   5.23159
   1 1   N  1S         -0.00000  -0.04305   0.00000  -0.00000   0.00000
   2        2S         -0.00000  -0.09685   0.00000  -0.00000   0.00000
   3        2PX         0.00000   0.00000   0.00000   0.00000   0.00000
   4        2PY         0.00000   0.00000   0.00000   0.00000   0.06435
   5        2PZ        -0.00000   0.95686   0.00000   0.00000   0.00000
   6        3S          0.00000   0.90688   0.00000   0.00000   0.00000
   7        3PX         0.00000   0.00000   0.00000   0.00000   0.00000
   8        3PY         0.00000   0.00000   0.00000   0.00000   0.00672
   9        3PZ         0.00000  -3.00162   0.00000  -0.00000   0.00000
  10        4S         -0.00000   8.66665   0.00000   0.00000   0.00000
  11        4PX         0.00000   0.00000   0.00000   0.00000   0.00000
  12        4PY         0.00000   0.00000   0.00000   0.00000   0.66165
  13        4PZ         0.00000  -3.51614   0.00000  -0.00000   0.00000
  14        5S         -0.00000  -8.33044   0.00000  -0.00000   0.00000
  15        5PX         0.00000   0.00000   0.00000   0.00000   0.00000
  16        5PY         0.00000   0.00000   0.00000   0.00000  -0.20178
  17        5PZ        -0.00000   2.22471   0.00000   0.00000   0.00000
  18        6D 0        0.00000  -0.13528   0.00000  -0.00000   0.00000
  19        6D+1        0.00000   0.00000   0.00000   0.00000   0.00000
  20        6D-1        0.00000   0.00000   0.00000   0.00000   0.84628
  21        6D+2        0.79183  -0.00000   0.00000   0.80603   0.00000
  22        6D-2        0.00000   0.00000   0.80603   0.00000   0.00000
  23        7D 0       -0.00000   1.49021   0.00000   0.00000   0.00000
  24        7D+1        0.00000   0.00000   0.00000   0.00000   0.00000
  25        7D-1        0.00000   0.00000   0.00000   0.00000  -0.73799
  26        7D+2       -0.32686   0.00000   0.00000  -0.47323   0.00000
  27        7D-2        0.00000   0.00000  -0.47323   0.00000   0.00000
  28 2   N  1S         -0.00000   0.04305   0.00000   0.00000   0.00000
  29        2S         -0.00000   0.09685   0.00000   0.00000   0.00000
  30        2PX         0.00000   0.00000   0.00000   0.00000   0.00000
  31        2PY         0.00000   0.00000   0.00000   0.00000  -0.06435
  32        2PZ         0.00000   0.95686   0.00000   0.00000   0.00000
  33        3S          0.00000  -0.90688   0.00000  -0.00000   0.00000
  34        3PX         0.00000   0.00000   0.00000   0.00000   0.00000
  35        3PY         0.00000   0.00000   0.00000   0.00000  -0.00672
  36        3PZ        -0.00000  -3.00162   0.00000  -0.00000   0.00000
  37        4S         -0.00000  -8.66665   0.00000  -0.00000   0.00000
  38        4PX         0.00000   0.00000   0.00000   0.00000   0.00000
  39        4PY         0.00000   0.00000   0.00000   0.00000  -0.66165
  40        4PZ        -0.00000  -3.51614   0.00000  -0.00000   0.00000
  41        5S         -0.00000   8.33044   0.00000   0.00000   0.00000
  42        5PX         0.00000   0.00000   0.00000   0.00000   0.00000
  43        5PY         0.00000   0.00000   0.00000   0.00000   0.20178
  44        5PZ         0.00000   2.22471   0.00000   0.00000   0.00000
  45        6D 0        0.00000   0.13528   0.00000   0.00000   0.00000
  46        6D+1        0.00000   0.00000   0.00000   0.00000   0.00000
  47        6D-1        0.00000   0.00000   0.00000   0.00000   0.84628
  48        6D+2        0.79183   0.00000   0.00000  -0.80603   0.00000
  49        6D-2        0.00000   0.00000  -0.80603   0.00000   0.00000
  50        7D 0       -0.00000  -1.49021   0.00000  -0.00000   0.00000
  51        7D+1        0.00000   0.00000   0.00000   0.00000   0.00000
  52        7D-1        0.00000   0.00000   0.00000   0.00000  -0.73799
  53        7D+2       -0.32686  -0.00000   0.00000   0.47323   0.00000
  54        7D-2        0.00000   0.00000   0.47323   0.00000   0.00000
                          51        52        53        54
                       (PIG)--V  (SGU)--V  (SGG)--V  (SGU)--V
     Eigenvalues --     5.23159   6.21802  35.08796  36.00771
   1 1   N  1S          0.00000   0.05820  -1.51651  -1.52377
   2        2S          0.00000   0.07834   1.59531   1.64479
   3        2PX         0.06435   0.00000   0.00000   0.00000
   4        2PY         0.00000   0.00000   0.00000   0.00000
   5        2PZ         0.00000  -0.26163   0.00305  -0.08171
   6        3S          0.00000  -0.52086  -0.30449  -0.45914
   7        3PX         0.00672   0.00000   0.00000   0.00000
   8        3PY         0.00000   0.00000   0.00000   0.00000
   9        3PZ         0.00000   1.20250   0.00546   0.46377
  10        4S          0.00000  -0.12806   0.20825  -0.63955
  11        4PX         0.66165   0.00000   0.00000   0.00000
  12        4PY         0.00000   0.00000   0.00000   0.00000
  13        4PZ         0.00000  -0.37249  -0.07394   0.32978
  14        5S          0.00000   3.00122  -0.05188  -0.35190
  15        5PX        -0.20178   0.00000   0.00000   0.00000
  16        5PY         0.00000   0.00000   0.00000   0.00000
  17        5PZ         0.00000  -0.70119   0.05357   0.07449
  18        6D 0        0.00000  -0.97786   0.00531  -0.08251
  19        6D+1        0.84628   0.00000   0.00000   0.00000
  20        6D-1        0.00000   0.00000   0.00000   0.00000
  21        6D+2        0.00000  -0.00000   0.00000  -0.00000
  22        6D-2        0.00000   0.00000   0.00000   0.00000
  23        7D 0        0.00000   0.08537   0.07012  -0.20528
  24        7D+1       -0.73799   0.00000   0.00000   0.00000
  25        7D-1        0.00000   0.00000   0.00000   0.00000
  26        7D+2        0.00000  -0.00000   0.00000   0.00000
  27        7D-2        0.00000   0.00000   0.00000   0.00000
  28 2   N  1S          0.00000  -0.05820  -1.51651   1.52377
  29        2S          0.00000  -0.07834   1.59531  -1.64479
  30        2PX        -0.06435   0.00000   0.00000   0.00000
  31        2PY         0.00000   0.00000   0.00000   0.00000
  32        2PZ         0.00000  -0.26163  -0.00305  -0.08171
  33        3S          0.00000   0.52086  -0.30449   0.45914
  34        3PX        -0.00672   0.00000   0.00000   0.00000
  35        3PY         0.00000   0.00000   0.00000   0.00000
  36        3PZ         0.00000   1.20250  -0.00546   0.46377
  37        4S          0.00000   0.12806   0.20825   0.63955
  38        4PX        -0.66165   0.00000   0.00000   0.00000
  39        4PY         0.00000   0.00000   0.00000   0.00000
  40        4PZ         0.00000  -0.37249   0.07394   0.32978
  41        5S          0.00000  -3.00122  -0.05188   0.35190
  42        5PX         0.20178   0.00000   0.00000   0.00000
  43        5PY         0.00000   0.00000   0.00000   0.00000
  44        5PZ         0.00000  -0.70119  -0.05357   0.07449
  45        6D 0        0.00000   0.97786   0.00531   0.08251
  46        6D+1        0.84628   0.00000   0.00000   0.00000
  47        6D-1        0.00000   0.00000   0.00000   0.00000
  48        6D+2        0.00000   0.00000   0.00000   0.00000
  49        6D-2        0.00000   0.00000   0.00000   0.00000
  50        7D 0        0.00000  -0.08537   0.07012   0.20528
  51        7D+1       -0.73799   0.00000   0.00000   0.00000
  52        7D-1        0.00000   0.00000   0.00000   0.00000
  53        7D+2        0.00000   0.00000   0.00000  -0.00000
  54        7D-2        0.00000   0.00000   0.00000   0.00000
     Density Matrix:
                           1         2         3         4         5
   1 1   N  1S          0.65325
   2        2S          0.57052   0.51559
   3        2PX        -0.00000  -0.00000   0.08626
   4        2PY        -0.00000  -0.00000   0.00000   0.08626
   5        2PZ        -0.01003  -0.01600   0.00000   0.00000   0.14346
   6        3S         -0.12758  -0.21621   0.00000   0.00000   0.04587
   7        3PX        -0.00000  -0.00000   0.12777   0.00000   0.00000
   8        3PY        -0.00000  -0.00000   0.00000   0.12777   0.00000
   9        3PZ        -0.01750  -0.02617   0.00000   0.00000   0.19064
  10        4S         -0.12972  -0.20553   0.00000   0.00000   0.17643
  11        4PX        -0.00000  -0.00000   0.08531   0.00000   0.00000
  12        4PY        -0.00000  -0.00000   0.00000   0.08531   0.00000
  13        4PZ        -0.01371  -0.02156   0.00000   0.00000   0.09264
  14        5S          0.04746   0.06382  -0.00000  -0.00000  -0.01497
  15        5PX        -0.00000  -0.00000   0.00492   0.00000   0.00000
  16        5PY        -0.00000  -0.00000   0.00000   0.00492   0.00000
  17        5PZ        -0.01729  -0.02425   0.00000   0.00000   0.01562
  18        6D 0       -0.00047  -0.00145   0.00000   0.00000  -0.01261
  19        6D+1       -0.00000  -0.00000  -0.00746   0.00000  -0.00000
  20        6D-1       -0.00000  -0.00000   0.00000  -0.00746  -0.00000
  21        6D+2        0.00000   0.00000  -0.00000   0.00000  -0.00000
  22        6D-2        0.00000   0.00000  -0.00000  -0.00000   0.00000
  23        7D 0        0.00048   0.00020   0.00000   0.00000  -0.00747
  24        7D+1        0.00000   0.00000  -0.01396   0.00000   0.00000
  25        7D-1        0.00000   0.00000   0.00000  -0.01396   0.00000
  26        7D+2        0.00000   0.00000  -0.00000   0.00000   0.00000
  27        7D-2        0.00000   0.00000  -0.00000  -0.00000   0.00000
  28 2   N  1S          0.00377   0.00583   0.00000   0.00000   0.02348
  29        2S          0.00583   0.00828   0.00000   0.00000   0.03763
  30        2PX        -0.00000  -0.00000   0.08626   0.00000  -0.00000
  31        2PY        -0.00000  -0.00000   0.00000   0.08626  -0.00000
  32        2PZ        -0.02348  -0.03763  -0.00000  -0.00000  -0.10501
  33        3S         -0.01211  -0.01501  -0.00000  -0.00000  -0.11121
  34        3PX        -0.00000  -0.00000   0.12777   0.00000  -0.00000
  35        3PY        -0.00000  -0.00000   0.00000   0.12777  -0.00000
  36        3PZ        -0.03365  -0.05021  -0.00000  -0.00000  -0.14017
  37        4S          0.03165   0.05655  -0.00000  -0.00000  -0.01444
  38        4PX        -0.00000  -0.00000   0.08531   0.00000  -0.00000
  39        4PY        -0.00000  -0.00000   0.00000   0.08531  -0.00000
  40        4PZ        -0.00588  -0.00707  -0.00000  -0.00000  -0.07424
  41        5S         -0.04982  -0.06904   0.00000   0.00000   0.06241
  42        5PX        -0.00000  -0.00000   0.00492   0.00000   0.00000
  43        5PY        -0.00000  -0.00000   0.00000   0.00492   0.00000
  44        5PZ        -0.01263  -0.01816   0.00000   0.00000   0.01049
  45        6D 0       -0.00341  -0.00495  -0.00000  -0.00000  -0.01103
  46        6D+1       -0.00000  -0.00000   0.00746   0.00000  -0.00000
  47        6D-1       -0.00000  -0.00000   0.00000   0.00746  -0.00000
  48        6D+2        0.00000   0.00000   0.00000  -0.00000  -0.00000
  49        6D-2        0.00000   0.00000   0.00000   0.00000   0.00000
  50        7D 0       -0.00511  -0.00589  -0.00000  -0.00000  -0.00533
  51        7D+1       -0.00000  -0.00000   0.01396   0.00000  -0.00000
  52        7D-1       -0.00000  -0.00000   0.00000   0.01396  -0.00000
  53        7D+2        0.00000   0.00000   0.00000  -0.00000  -0.00000
  54        7D-2        0.00000   0.00000   0.00000   0.00000   0.00000
                           6         7         8         9        10
   6        3S          0.65908
   7        3PX         0.00000   0.18925
   8        3PY         0.00000   0.00000   0.18925
   9        3PZ         0.06919   0.00000   0.00000   0.25366
  10        4S          0.58580   0.00000   0.00000   0.23945   0.66999
  11        4PX         0.00000   0.12636   0.00000  -0.00000   0.00000
  12        4PY         0.00000   0.00000   0.12636  -0.00000   0.00000
  13        4PZ         0.05956  -0.00000  -0.00000   0.12448   0.12904
  14        5S         -0.14834  -0.00000  -0.00000  -0.01892  -0.16632
  15        5PX         0.00000   0.00728   0.00000   0.00000   0.00000
  16        5PY         0.00000   0.00000   0.00728   0.00000   0.00000
  17        5PZ         0.05963   0.00000   0.00000   0.02079   0.07115
  18        6D 0        0.00631   0.00000   0.00000  -0.01660  -0.00741
  19        6D+1        0.00000  -0.01106   0.00000  -0.00000  -0.00000
  20        6D-1        0.00000   0.00000  -0.01106  -0.00000  -0.00000
  21        6D+2        0.00000  -0.00000   0.00000  -0.00000   0.00000
  22        6D-2        0.00000  -0.00000  -0.00000   0.00000   0.00000
  23        7D 0        0.00115   0.00000   0.00000  -0.00984  -0.00694
  24        7D+1        0.00000  -0.02067   0.00000   0.00000  -0.00000
  25        7D-1        0.00000   0.00000  -0.02067   0.00000  -0.00000
  26        7D+2       -0.00000  -0.00000   0.00000   0.00000   0.00000
  27        7D-2        0.00000  -0.00000  -0.00000   0.00000   0.00000
  28 2   N  1S         -0.01211   0.00000   0.00000   0.03365   0.03165
  29        2S         -0.01501   0.00000   0.00000   0.05021   0.05655
  30        2PX         0.00000   0.12777   0.00000  -0.00000   0.00000
  31        2PY         0.00000   0.00000   0.12777  -0.00000   0.00000
  32        2PZ         0.11121  -0.00000  -0.00000  -0.14017   0.01444
  33        3S          0.01667  -0.00000  -0.00000  -0.13673  -0.19409
  34        3PX         0.00000   0.18925   0.00000  -0.00000   0.00000
  35        3PY         0.00000   0.00000   0.18925  -0.00000   0.00000
  36        3PZ         0.13673  -0.00000  -0.00000  -0.18733   0.01103
  37        4S         -0.19409  -0.00000  -0.00000  -0.01103  -0.27752
  38        4PX         0.00000   0.12636   0.00000  -0.00000  -0.00000
  39        4PY         0.00000   0.00000   0.12636  -0.00000  -0.00000
  40        4PZ         0.01551  -0.00000  -0.00000  -0.10028  -0.03770
  41        5S          0.16677   0.00000   0.00000   0.08300   0.21759
  42        5PX         0.00000   0.00728   0.00000   0.00000   0.00000
  43        5PY         0.00000   0.00000   0.00728   0.00000   0.00000
  44        5PZ         0.04680   0.00000   0.00000   0.01356   0.05841
  45        6D 0        0.01271  -0.00000  -0.00000  -0.01450   0.00043
  46        6D+1        0.00000   0.01106   0.00000  -0.00000   0.00000
  47        6D-1        0.00000   0.00000   0.01106  -0.00000   0.00000
  48        6D+2        0.00000   0.00000  -0.00000  -0.00000  -0.00000
  49        6D-2        0.00000   0.00000   0.00000   0.00000   0.00000
  50        7D 0        0.00973  -0.00000  -0.00000  -0.00699   0.00361
  51        7D+1        0.00000   0.02067   0.00000  -0.00000   0.00000
  52        7D-1        0.00000   0.00000   0.02067  -0.00000   0.00000
  53        7D+2       -0.00000   0.00000  -0.00000  -0.00000  -0.00000
  54        7D-2        0.00000   0.00000   0.00000   0.00000   0.00000
                          11        12        13        14        15
  11        4PX         0.08437
  12        4PY         0.00000   0.08437
  13        4PZ        -0.00000  -0.00000   0.06632
  14        5S         -0.00000  -0.00000  -0.00061   0.08385
  15        5PX         0.00486   0.00000   0.00000  -0.00000   0.00028
  16        5PY         0.00000   0.00486   0.00000  -0.00000   0.00000
  17        5PZ         0.00000   0.00000   0.00893  -0.02563   0.00000
  18        6D 0        0.00000   0.00000  -0.00747  -0.00033   0.00000
  19        6D+1       -0.00738   0.00000  -0.00000  -0.00000  -0.00043
  20        6D-1        0.00000  -0.00738  -0.00000  -0.00000   0.00000
  21        6D+2       -0.00000   0.00000  -0.00000  -0.00000  -0.00000
  22        6D-2       -0.00000  -0.00000   0.00000   0.00000  -0.00000
  23        7D 0        0.00000   0.00000  -0.00432   0.00119   0.00000
  24        7D+1       -0.01380   0.00000   0.00000   0.00000  -0.00080
  25        7D-1        0.00000  -0.01380   0.00000   0.00000   0.00000
  26        7D+2       -0.00000   0.00000   0.00000  -0.00000  -0.00000
  27        7D-2       -0.00000  -0.00000   0.00000   0.00000  -0.00000
  28 2   N  1S          0.00000   0.00000   0.00588  -0.04982   0.00000
  29        2S          0.00000   0.00000   0.00707  -0.06904   0.00000
  30        2PX         0.08531   0.00000  -0.00000  -0.00000   0.00492
  31        2PY         0.00000   0.08531  -0.00000  -0.00000   0.00000
  32        2PZ        -0.00000  -0.00000  -0.07424  -0.06241   0.00000
  33        3S         -0.00000  -0.00000  -0.01551   0.16677  -0.00000
  34        3PX         0.12636   0.00000  -0.00000  -0.00000   0.00728
  35        3PY         0.00000   0.12636  -0.00000  -0.00000   0.00000
  36        3PZ        -0.00000  -0.00000  -0.10028  -0.08300   0.00000
  37        4S          0.00000   0.00000   0.03770   0.21759  -0.00000
  38        4PX         0.08437   0.00000  -0.00000  -0.00000   0.00486
  39        4PY         0.00000   0.08437  -0.00000  -0.00000   0.00000
  40        4PZ        -0.00000  -0.00000  -0.05749  -0.03660  -0.00000
  41        5S          0.00000   0.00000   0.03660  -0.07334   0.00000
  42        5PX         0.00486   0.00000  -0.00000  -0.00000   0.00028
  43        5PY         0.00000   0.00486  -0.00000  -0.00000   0.00000
  44        5PZ        -0.00000  -0.00000   0.00361  -0.02727   0.00000
  45        6D 0       -0.00000  -0.00000  -0.00670  -0.00359  -0.00000
  46        6D+1        0.00738   0.00000  -0.00000  -0.00000   0.00043
  47        6D-1        0.00000   0.00738  -0.00000  -0.00000   0.00000
  48        6D+2        0.00000  -0.00000  -0.00000   0.00000   0.00000
  49        6D-2        0.00000   0.00000   0.00000   0.00000   0.00000
  50        7D 0       -0.00000  -0.00000  -0.00328  -0.00328  -0.00000
  51        7D+1        0.01380   0.00000  -0.00000  -0.00000   0.00080
  52        7D-1        0.00000   0.01380  -0.00000  -0.00000   0.00000
  53        7D+2        0.00000  -0.00000  -0.00000   0.00000   0.00000
  54        7D-2        0.00000   0.00000   0.00000   0.00000   0.00000
                          16        17        18        19        20
  16        5PY         0.00028
  17        5PZ         0.00000   0.00912
  18        6D 0        0.00000  -0.00065   0.00128
  19        6D+1        0.00000  -0.00000   0.00000   0.00065
  20        6D-1       -0.00043  -0.00000   0.00000   0.00000   0.00065
  21        6D+2        0.00000   0.00000   0.00000   0.00000  -0.00000
  22        6D-2       -0.00000   0.00000   0.00000   0.00000   0.00000
  23        7D 0        0.00000  -0.00079   0.00073  -0.00000  -0.00000
  24        7D+1        0.00000  -0.00000  -0.00000   0.00121   0.00000
  25        7D-1       -0.00080  -0.00000  -0.00000   0.00000   0.00121
  26        7D+2        0.00000   0.00000  -0.00000   0.00000  -0.00000
  27        7D-2       -0.00000   0.00000   0.00000   0.00000   0.00000
  28 2   N  1S          0.00000   0.01263  -0.00341  -0.00000  -0.00000
  29        2S          0.00000   0.01816  -0.00495  -0.00000  -0.00000
  30        2PX         0.00000   0.00000   0.00000  -0.00746   0.00000
  31        2PY         0.00492   0.00000   0.00000   0.00000  -0.00746
  32        2PZ         0.00000   0.01049   0.01103   0.00000   0.00000
  33        3S         -0.00000  -0.04680   0.01271   0.00000   0.00000
  34        3PX         0.00000   0.00000   0.00000  -0.01106   0.00000
  35        3PY         0.00728   0.00000   0.00000   0.00000  -0.01106
  36        3PZ         0.00000   0.01356   0.01450   0.00000   0.00000
  37        4S         -0.00000  -0.05841   0.00043   0.00000   0.00000
  38        4PX         0.00000  -0.00000   0.00000  -0.00738   0.00000
  39        4PY         0.00486  -0.00000   0.00000   0.00000  -0.00738
  40        4PZ        -0.00000   0.00361   0.00670   0.00000   0.00000
  41        5S          0.00000   0.02727  -0.00359  -0.00000  -0.00000
  42        5PX         0.00000   0.00000   0.00000  -0.00043   0.00000
  43        5PY         0.00028   0.00000   0.00000   0.00000  -0.00043
  44        5PZ         0.00000   0.00870  -0.00044  -0.00000  -0.00000
  45        6D 0       -0.00000   0.00044   0.00121   0.00000   0.00000
  46        6D+1        0.00000   0.00000   0.00000  -0.00065   0.00000
  47        6D-1        0.00043   0.00000   0.00000   0.00000  -0.00065
  48        6D+2       -0.00000  -0.00000   0.00000  -0.00000   0.00000
  49        6D-2        0.00000   0.00000   0.00000  -0.00000  -0.00000
  50        7D 0       -0.00000   0.00070   0.00063   0.00000   0.00000
  51        7D+1        0.00000   0.00000   0.00000  -0.00121   0.00000
  52        7D-1        0.00080   0.00000   0.00000   0.00000  -0.00121
  53        7D+2       -0.00000  -0.00000  -0.00000  -0.00000   0.00000
  54        7D-2        0.00000   0.00000   0.00000  -0.00000  -0.00000
                          21        22        23        24        25
  21        6D+2       -0.00000
  22        6D-2        0.00000   0.00000
  23        7D 0        0.00000   0.00000   0.00045
  24        7D+1        0.00000   0.00000  -0.00000   0.00226
  25        7D-1       -0.00000   0.00000  -0.00000   0.00000   0.00226
  26        7D+2        0.00000   0.00000  -0.00000   0.00000  -0.00000
  27        7D-2        0.00000   0.00000   0.00000   0.00000   0.00000
  28 2   N  1S          0.00000   0.00000  -0.00511  -0.00000  -0.00000
  29        2S          0.00000   0.00000  -0.00589  -0.00000  -0.00000
  30        2PX        -0.00000  -0.00000   0.00000  -0.01396   0.00000
  31        2PY         0.00000  -0.00000   0.00000   0.00000  -0.01396
  32        2PZ         0.00000   0.00000   0.00533   0.00000   0.00000
  33        3S          0.00000   0.00000   0.00973   0.00000   0.00000
  34        3PX        -0.00000  -0.00000   0.00000  -0.02067   0.00000
  35        3PY         0.00000  -0.00000   0.00000   0.00000  -0.02067
  36        3PZ         0.00000   0.00000   0.00699   0.00000   0.00000
  37        4S         -0.00000   0.00000   0.00361   0.00000   0.00000
  38        4PX        -0.00000  -0.00000   0.00000  -0.01380   0.00000
  39        4PY         0.00000  -0.00000   0.00000   0.00000  -0.01380
  40        4PZ         0.00000   0.00000   0.00328   0.00000   0.00000
  41        5S          0.00000   0.00000  -0.00328  -0.00000  -0.00000
  42        5PX        -0.00000  -0.00000   0.00000  -0.00080   0.00000
  43        5PY         0.00000  -0.00000   0.00000   0.00000  -0.00080
  44        5PZ         0.00000   0.00000  -0.00070  -0.00000  -0.00000
[...]
  21        6D+2       -0.00000
  22        6D-2        0.00000
  23        7D 0        0.00500
  24        7D+1        0.02241
  25        7D-1        0.02241
  26        7D+2       -0.00000
  27        7D-2        0.00000
  28 2   N  1S          1.09520
  29        2S          0.89573
  30        2PX         0.20443
  31        2PY         0.20443
  32        2PZ         0.33971
  33        3S          0.99085
  34        3PX         0.45898
  35        3PY         0.45898
  36        3PZ         0.63022
  37        4S          0.83146
  38        4PX         0.30022
  39        4PY         0.30022
  40        4PZ         0.15526
  41        5S         -0.01023
  42        5PX         0.01009
  43        5PY         0.01009
  44        5PZ         0.05930
  45        6D 0        0.00751
  46        6D+1        0.00387
  47        6D-1        0.00387
  48        6D+2       -0.00000
  49        6D-2        0.00000
  50        7D 0        0.00500
  51        7D+1        0.02241
  52        7D-1        0.02241
  53        7D+2       -0.00000
  54        7D-2        0.00000
          Condensed to atoms (all electrons):
               1          2
     1  N    6.143161   0.856839
     2  N    0.856839   6.143161
 Mulliken charges:
               1
     1  N   -0.000000
     2  N    0.000000
 Sum of Mulliken charges =  -0.00000
 Mulliken charges with hydrogens summed into heavy atoms:
               1
     1  N   -0.000000
     2  N    0.000000
 APT charges:
               1
     1  N    0.000000
     2  N    0.000000
 Sum of APT charges =   0.00000
 APT charges with hydrogens summed into heavy atoms:
               1
     1  N    0.000000
     2  N    0.000000
 Electronic spatial extent (au):  <R**2>=             39.0406
 Charge=             -0.0000 electrons
 Dipole moment (field-independent basis, Debye):
    X=              0.0000    Y=              0.0000    Z=              0.0000  Tot=              0.0000
 Quadrupole moment (field-independent basis, Debye-Ang):
   XX=            -10.3339   YY=            -10.3339   ZZ=            -11.8112
   XY=              0.0000   XZ=              0.0000   YZ=             -0.0000
 Traceless Quadrupole moment (field-independent basis, Debye-Ang):
   XX=              0.4924   YY=              0.4924   ZZ=             -0.9849
   XY=              0.0000   XZ=              0.0000   YZ=             -0.0000
 Octapole moment (field-independent basis, Debye-Ang**2):
  XXX=             -0.0000  YYY=             -0.0000  ZZZ=             -0.0000  XYY=             -0.0000
  XXY=              0.0000  XXZ=              0.0000  XZZ=             -0.0000  YZZ=              0.0000
  YYZ=              0.0000  XYZ=             -0.0000
 Hexadecapole moment (field-independent basis, Debye-Ang**3):
 XXXX=             -9.1463 YYYY=             -9.1463 ZZZZ=            -32.1290 XXXY=              0.0000
 XXXZ=              0.0000 YYYX=              0.0000 YYYZ=             -0.0000 ZZZX=              0.0000
 ZZZY=             -0.0000 XXYY=             -3.0488 XXZZ=             -6.4738 YYZZ=             -6.4738
 XXYZ=             -0.0000 YYXZ=              0.0000 ZZXY=              0.0000
 N-N= 2.375393780338D+01 E-N=-3.040161601656D+02  KE= 1.092328794337D+02
 Symmetry AG   KE= 5.344992047008D+01
 Symmetry B1G  KE= 1.885026932869D-34
 Symmetry B2G  KE= 1.113064865903D-31
 Symmetry B3G  KE= 6.531132416046D-32
 Symmetry AU   KE= 7.383363581678D-34
 Symmetry B1U  KE= 4.885064963296D+01
 Symmetry B2U  KE= 3.466154665313D+00
 Symmetry B3U  KE= 3.466154665313D+00
 There are a total of       45020 grid points.
 ElSum from          density=       13.9999999046
 ElSum from atomic densities=       13.9999999045

 Hirshfeld populations at iteration   1 (CX, CA, CB, DipXYZ):
               1          2          3          4          5          6
     1  N    0.000004   3.500000   3.500000  -0.000000  -0.000000  -0.058973
     2  N    0.000004   3.500000   3.500000  -0.000000  -0.000000   0.058973
       Tot   0.000008   7.000000   7.000000  -0.000000  -0.000000   0.000000

 Dip from Atomic Chgs              0.000000   0.000000   0.000000
         Total Dipole             -0.000000  -0.000000   0.000000

 Hirshfeld charges, spin densities, dipoles, and CM5 charges using IRadAn=      5:
              Q-H        S-H        Dx         Dy         Dz        Q-CM5   
     1  N    0.000000   0.000000  -0.000000  -0.000000  -0.058973   0.000000
     2  N    0.000000   0.000000  -0.000000  -0.000000   0.058973   0.000000
       Tot   0.000000   0.000000  -0.000000  -0.000000   0.000000   0.000000
 Hirshfeld charges with hydrogens summed into heavy atoms:
              Q-H       Q-CM5   
     1  N    0.000000   0.000000
     2  N    0.000000   0.000000
 
 EQQ= 0.000000000000E+00 EQD= 0.000000000000E+00 EDD=-0.396210882339E-03
 EQQ+QD+DD=-0.396210882339E-03
 
 Orbital energies and kinetic energies (alpha):
                                 1                 2
   1 (SGG)--O                -14.421809         22.043718
   2 (SGU)--O                -14.419975         22.052583
   3 (SGG)--O                 -1.140314          2.637101
   4 (SGU)--O                 -0.559696          2.372742
   5 (PIU)--O                 -0.476729          1.733077
   6 (PIU)--O                 -0.476729          1.733077
   7 (SGG)--O                 -0.441744          2.044141
   8 (PIG)--V                 -0.035158          1.918148
   9 (PIG)--V                 -0.035158          1.918148
  10 (SGG)--V                  0.063139          0.476791
  11 (SGU)--V                  0.078364          0.308584
  12 (PIU)--V                  0.091170          0.338515
  13 (PIU)--V                  0.091170          0.338515
  14 (SGG)--V                  0.141417          0.302198
  15 (PIG)--V                  0.172253          0.620508
  16 (PIG)--V                  0.172253          0.620508
  17 (SGU)--V                  0.259141          0.458807
  18 (SGU)--V                  0.494391          1.670892
  19 (SGG)--V                  0.662305          1.439857
  20 (PIU)--V                  0.696849          1.768068
  21 (PIU)--V                  0.696849          1.768068
  22 (PIG)--V                  0.800942          2.086616
  23 (PIG)--V                  0.800942          2.086616
  24 (DLTG)--V                 0.807416          1.489799
  25 (DLTG)--V                 0.807416          1.489799
  26 (SGU)--V                  0.848570          3.354727
  27 (SGG)--V                  0.869070          2.950260
  28 (PIU)--V                  1.082112          2.044666
  29 (PIU)--V                  1.082112          2.044666
  30 (SGU)--V                  1.188000          3.471811
  31 (DLTU)--V                 1.236693          1.873647
  32 (DLTU)--V                 1.236693          1.873647
  33 (PIG)--V                  1.749236          2.495967
  34 (PIG)--V                  1.749236          2.495967
  35 (SGG)--V                  1.816324          2.939604
  36 (SGU)--V                  1.994141          4.359304
  37 (PIU)--V                  3.647279          8.898659
  38 (PIU)--V                  3.647279          8.898659
  39 (PIG)--V                  3.927228          8.947899
  40 (PIG)--V                  3.927228          8.947899
  41 (SGG)--V                  3.998821          8.172030
  42 (PIU)--V                  4.341690          6.790453
  43 (PIU)--V                  4.341690          6.790453
  44 (SGG)--V                  4.358391          8.197167
  45 (DLTG)--V                 4.585162          7.076414
  46 (DLTG)--V                 4.585162          7.076414
  47 (SGU)--V                  4.645522          9.458291
  48 (DLTU)--V                 4.751005          7.266724
  49 (DLTU)--V                 4.751005          7.266724
  50 (PIG)--V                  5.232582          7.913834
  51 (PIG)--V                  5.232582          7.913834
  52 (SGU)--V                  6.219455          9.582852
  53 (SGG)--V                 35.087909         88.984798
  54 (SGU)--V                 36.009942         89.134385
 Total kinetic energy from orbitals= 1.092328794337D+02
  Exact polarizability:   8.839   0.000   8.839   0.000  -0.000  15.000
 Approx polarizability:  11.701  -0.000  11.701  -0.000  -0.000  27.406
 No NMR shielding tensors so no spin-rotation constants.
 Leave Link  601 at Fri Sep  6 09:50:29 2024, MaxMem=   104857600 cpu:               0.1 elap:               0.1
 (Enter /Users/asuyarger/Applications/G16/g16/l701.exe)
 ... and contract with generalized density number  0.
 Compute integral second derivatives.
 Leave Link  701 at Fri Sep  6 09:50:29 2024, MaxMem=   104857600 cpu:               0.1 elap:               0.1
 (Enter /Users/asuyarger/Applications/G16/g16/l702.exe)
 L702 exits ... SP integral derivatives will be done elsewhere.
 Leave Link  702 at Fri Sep  6 09:50:29 2024, MaxMem=   104857600 cpu:               0.0 elap:               0.0
 (Enter /Users/asuyarger/Applications/G16/g16/l703.exe)
 Integral derivatives from FoFJK, PRISM(SPDF).
 Compute integral second derivatives, UseDBF=F ICtDFT=           0.
 Calling FoFJK, ICntrl=    100127 FMM=F ISym2X=1 I1Cent= 0 IOpClX= 0 NMat=1 NMatS=1 NMatT=0.
 FoFJK:  IHMeth= 1 ICntrl=  100127 DoSepK=F KAlg= 0 I1Cent=           0 FoldK=F
 IRaf=         0 NMat=       1 IRICut=       1 DoRegI=T DoRafI=F ISym2E= 1 IDoP0=0 IntGTp=1.
 FoFCou: FMM=F IPFlag=           0 FMFlag=      100000 FMFlg1=         800
         NFxFlg=           0 DoJE=F BraDBF=F KetDBF=F FulRan=T
         wScrn=  0.000000 ICntrl=    100127 IOpCl=  0 I1Cent=           0 NGrid=           0
         NMat0=    1 NMatS0=      1 NMatT0=    0 NMatD0=    1 NMtDS0=    0 NMtDT0=    0
 Petite list used in FoFCou.
 Leave Link  703 at Fri Sep  6 09:50:29 2024, MaxMem=   104857600 cpu:               0.4 elap:               0.4
 (Enter /Users/asuyarger/Applications/G16/g16/l716.exe)
 Dipole        = 1.97215226D-31 2.19074531D-33 0.00000000D+00
 Polarizability= 8.83881229D+00 3.76128959D-18 8.83881229D+00
                 5.18854051D-18-6.23995433D-30 1.50000833D+01
 HyperPolar    = 1.19586891D-10 2.69658508D-12-8.65034634D-12
                -5.25557337D-12-5.65114048D-11 2.80513240D-12
                 3.41984580D-11 1.69096164D-11-3.64566689D-15
                 2.87683853D-11
 Full mass-weighted force constant matrix:
 Low frequencies ---    0.0006    0.0010    0.0011   19.6194   19.6194 2434.1984
 Diagonal vibrational polarizability:
        0.0000000       0.0000000       0.0000000
 Diagonal vibrational hyperpolarizability:
        0.0000000      -0.0000000      -0.0000000
 Harmonic frequencies (cm**-1), IR intensities (KM/Mole), Raman scattering
 activities (A**4/AMU), depolarization ratios for plane and unpolarized
 incident light, reduced masses (AMU), force constants (mDyne/A),
 and normal coordinates:
                      1
                     SGG
 Frequencies --   2434.1984
 Red. masses --     14.0031
 Frc consts  --     48.8861
 IR Inten    --      0.0000
 Raman Activ --     19.8673
 Depolar (P) --      0.1657
 Depolar (U) --      0.2843
  Atom  AN      X      Y      Z
     1   7    -0.00   0.00   0.71
     2   7     0.00   0.00  -0.71

 -------------------
 - Thermochemistry -
 -------------------
 Temperature   298.150 Kelvin.  Pressure   1.00000 Atm.
 Atom     1 has atomic number  7 and mass  14.00307
 Atom     2 has atomic number  7 and mass  14.00307
 Molecular mass:    28.00615 amu.
 Principal axes and moments of inertia in atomic units:
                           1         2         3
     Eigenvalues --     0.00000  29.79301  29.79301
           X           -0.00000   1.00000  -0.00000
           Y            0.00000   0.00000   1.00000
           Z            1.00000   0.00000  -0.00000
 This molecule is a prolate symmetric top.
 Rotational symmetry number  2.
 Rotational temperature (Kelvin)      2.90719
 Rotational constant (GHZ):          60.576003
 Zero-point vibrational energy      14559.7 (Joules/Mol)
                                    3.47986 (Kcal/Mol)
 Vibrational temperatures:   3502.27
          (Kelvin)
 
 Zero-point correction=                           0.005546 (Hartree/Particle)
 Thermal correction to Energy=                    0.007906
 Thermal correction to Enthalpy=                  0.008850
 Thermal correction to Gibbs Free Energy=        -0.012880
 Sum of electronic and zero-point Energies=           -109.557935
 Sum of electronic and thermal Energies=              -109.555575
 Sum of electronic and thermal Enthalpies=            -109.554630
 Sum of electronic and thermal Free Energies=         -109.576361
 
                     E (Thermal)             CV                S
                      KCal/Mol        Cal/Mol-Kelvin    Cal/Mol-Kelvin
 Total                    4.961              4.970             45.736
 Electronic               0.000              0.000              0.000
 Translational            0.889              2.981             35.924
 Rotational               0.592              1.987              9.811
 Vibrational              3.480              0.002              0.000
                       Q            Log10(Q)             Ln(Q)
 Total Bot       0.840451D+06          5.924513         13.641694
 Total V=0       0.298723D+09          8.475269         19.515028
 Vib (Bot)       0.281350D-02         -2.550753         -5.873325
 Vib (V=0)       0.100001D+01          0.000003          0.000008
 Electronic      0.100000D+01          0.000000          0.000000
 Translational   0.582551D+07          6.765334         15.577757
 Rotational      0.512780D+02          1.709931          3.937263
 ***** Axes restored to original set *****
 -------------------------------------------------------------------
 Center     Atomic                   Forces (Hartrees/Bohr)
 Number     Number              X              Y              Z
 -------------------------------------------------------------------
      1        7          -0.000216212    0.000000000   -0.000000000
      2        7           0.000216212   -0.000000000    0.000000000
 -------------------------------------------------------------------
 Cartesian Forces:  Max     0.000216212 RMS     0.000124830
 Force constants in Cartesian coordinates: 
                1             2             3             4             5 
      1  0.156999D+01
      2  0.000000D+00  0.101990D-03
      3  0.000000D+00  0.000000D+00  0.101990D-03
      4 -0.156999D+01  0.000000D+00  0.000000D+00  0.156999D+01
      5  0.000000D+00 -0.101990D-03  0.000000D+00  0.000000D+00  0.101990D-03
      6  0.000000D+00  0.000000D+00 -0.101990D-03  0.000000D+00  0.000000D+00
                6 
      6  0.101990D-03
 FormGI is forming the generalized inverse of G from B-inverse, IUseBI=4.
 Force constants in internal coordinates: 
                1 
      1  0.156999D+01
 Leave Link  716 at Fri Sep  6 09:50:29 2024, MaxMem=   104857600 cpu:               0.0 elap:               0.0
 (Enter /Users/asuyarger/Applications/G16/g16/l103.exe)

 GradGradGradGradGradGradGradGradGradGradGradGradGradGradGradGradGradGrad
 Berny optimization.
 Red2BG is reusing G-inverse.
 Internal  Forces:  Max     0.000216212 RMS     0.000216212
 Search for a local minimum.
 Step number   1 out of a maximum of    2
 All quantities printed in internal units (Hartrees-Bohrs-Radians)
 Second derivative matrix not updated -- analytic derivatives used.
 The second derivative matrix:
                          R1
           R1           1.56999
 ITU=  0
     Eigenvalues ---    1.56999
 Angle between quadratic step and forces=   0.00 degrees.
 Linear search not attempted -- first point.
 Iteration  1 RMS(Cart)=  0.00009738 RMS(Int)=  0.00000000
 Iteration  2 RMS(Cart)=  0.00000000 RMS(Int)=  0.00000000
 ITry= 1 IFail=0 DXMaxC= 6.89D-05 DCOld= 1.00D+10 DXMaxT= 3.00D-01 DXLimC= 3.00D+00 Rises=F
 ClnCor:  largest displacement from symmetrization is 4.22D-21 for atom     2.
 Variable       Old X    -DE/DX   Delta X   Delta X   Delta X     New X
                                 (Linear)    (Quad)   (Total)
    R1        2.06282  -0.00022   0.00000  -0.00014  -0.00014   2.06268
         Item               Value     Threshold  Converged?
 Maximum Force            0.000216     0.000450     YES
 RMS     Force            0.000216     0.000300     YES
 Maximum Displacement     0.000069     0.001800     YES
 RMS     Displacement     0.000097     0.001200     YES
 Predicted change in Energy=-1.488789D-08
 Optimization completed.
    -- Stationary point found.
                           ----------------------------
                           !   Optimized Parameters   !
                           ! (Angstroms and Degrees)  !
 --------------------------                            --------------------------
 ! Name  Definition              Value          Derivative Info.                !
 --------------------------------------------------------------------------------
 ! R1    R(1,2)                  1.0916         -DE/DX =   -0.0002              !
 --------------------------------------------------------------------------------
 GradGradGradGradGradGradGradGradGradGradGradGradGradGradGradGradGradGrad

 Leave Link  103 at Fri Sep  6 09:50:29 2024, MaxMem=   104857600 cpu:               0.0 elap:               0.0
 (Enter /Users/asuyarger/Applications/G16/g16/l9999.exe)
 Dipole is zero, so no output in dipole orientation.

 ----------------------------------------------------------------------

 Electric dipole moment (input orientation):
 (Debye = 10**-18 statcoulomb cm , SI units = C m)
                  (au)            (Debye)         (10**-30 SI)
   Tot        0.000000D+00      0.000000D+00      0.000000D+00
   x          0.000000D+00      0.000000D+00      0.000000D+00
   y          0.000000D+00      0.000000D+00      0.000000D+00
   z          0.000000D+00      0.000000D+00      0.000000D+00

 Dipole polarizability, Alpha (input orientation).
 (esu units = cm**3 , SI units = C**2 m**2 J**-1)
 Alpha(0;0):
               (au)            (10**-24 esu)      (10**-40 SI)
   iso        0.108926D+02      0.161411D+01      0.179594D+01
   aniso      0.616127D+01      0.913006D+00      0.101586D+01
   xx         0.150001D+02      0.222278D+01      0.247318D+01
   yx         0.000000D+00      0.000000D+00      0.000000D+00
   yy         0.883881D+01      0.130978D+01      0.145732D+01
   zx         0.000000D+00      0.000000D+00      0.000000D+00
   zy         0.000000D+00      0.000000D+00      0.000000D+00
   zz         0.883881D+01      0.130978D+01      0.145732D+01

 ----------------------------------------------------------------------
 1\1\GINC-JEFFSMACSTUDIO\Freq\RB3LYP\6-311++G(2d,3p)\N2\ROOT\06-Sep-202
 4\0\\#P Geom=AllCheck Guess=TCheck SCRF=Check GenChk RB3LYP/6-311++G(2
 d,3p) Freq\\N2 Opt Freq HF 6-311++g(2d,3p) Full\\0,1\N,0.6330212357,0.
 52631578,0.\N,-0.4585739157,0.52631578,0.\\Version=EM64M-G16RevA.03\St
 ate=1-SGG\HF=-109.5634807\RMSD=5.743e-10\RMSF=1.248e-04\ZeroPoint=0.00
 55455\Thermal=0.0079061\Dipole=0.,0.,0.\DipoleDeriv=0.,0.,0.,0.,0.,0.,
 0.,0.,0.,0.,0.,0.,0.,0.,0.,0.,0.,0.\Polar=15.0000833,0.,8.8388123,0.,0
 .,8.8388123\PolarDeriv=11.2444777,0.,2.0771851,0.,0.,2.0771851,0.,2.98
 69331,0.,0.,0.,0.,0.,0.,0.,2.9869331,0.,0.,-11.2444777,0.,-2.0771851,0
 .,0.,-2.0771851,0.,-2.9869331,0.,0.,0.,0.,0.,0.,0.,-2.9869331,0.,0.\Hy
 perPolar=0.,0.,0.,0.,0.,0.,0.,0.,0.,0.\Quadrupole=-0.7322264,0.3661132
 ,0.3661132,0.,0.,0.\PG=D*H [C*(N1.N1)]\NImag=0\\1.56998964,0.,0.000101
 99,0.,0.,0.00010199,-1.56998964,0.,0.,1.56998964,0.,-0.00010199,0.,0.,
 0.00010199,0.,0.,-0.00010199,0.,0.,0.00010199\\0.00021621,0.,0.,-0.000
 21621,0.,0.\\\@


 WHEN YOU'VE SEEN ONE NUCLEAR WAR YOU'VE SEEN THEM ALL.
 Job cpu time:       0 days  0 hours  0 minutes  3.3 seconds.
 Elapsed time:       0 days  0 hours  0 minutes  3.2 seconds.
 File lengths (MBytes):  RWF=      6 Int=      0 D2E=      0 Chk=      1 Scr=      1
 Normal termination of Gaussian 16 at Fri Sep  6 09:50:29 2024.
