 Entering Gaussian System, Link 0=g16
 Input=/Users/asuyarger/Downloads/N2_DFT_WB97XD_apVTZ_Opt_Freq_Full.gjf
 Output=/Users/asuyarger/Downloads/N2_DFT_WB97XD_apVTZ_Opt_Freq_Full.log
 Initial command:
 /Users/asuyarger/Applications/G16/g16/l1.exe "/Users/asuyarger/Applications/G16/scratch/Gau-88488.inp" -scrdir="/Users/asuyarger/Applications/G16/scratch/"
 Entering Link 1 = /Users/asuyarger/Applications/G16/g16/l1.exe PID=     88489.
  
 Copyright (c) 1988,1990,1992,1993,1995,1998,2003,2009,2016,
            Gaussian, Inc.  All Rights Reserved.
  
 This is part of the Gaussian(R) 16 program.  It is based on
 the Gaussian(R) 09 system (copyright 2009, Gaussian, Inc.),
 the Gaussian(R) 03 system (copyright 2003, Gaussian, Inc.),
 the Gaussian(R) 98 system (copyright 1998, Gaussian, Inc.),
 the Gaussian(R) 94 system (copyright 1995, Gaussian, Inc.),
 the Gaussian 92(TM) system (copyright 1992, Gaussian, Inc.),
 the Gaussian 90(TM) system (copyright 1990, Gaussian, Inc.),
 the Gaussian 88(TM) system (copyright 1988, Gaussian, Inc.),
 the Gaussian 86(TM) system (copyright 1986, Carnegie Mellon
 University), and the Gaussian 82(TM) system (copyright 1983,
 Carnegie Mellon University). Gaussian is a federally registered
 trademark of Gaussian, Inc.
  
 This software contains proprietary and confidential information,
 including trade secrets, belonging to Gaussian, Inc.
  
 This software is provided under written license and may be
 used, copied, transmitted, or stored only in accord with that
 written license.
  
 The following legend is applicable only to US Government
 contracts under FAR:
  
                    RESTRICTED RIGHTS LEGEND
  
 Use, reproduction and disclosure by the US Government is
 subject to restrictions as set forth in subparagraphs (a)
 and (c) of the Commercial Computer Software - Restricted
 Rights clause in FAR 52.227-19.
  
 Gaussian, Inc.
 340 Quinnipiac St., Bldg. 40, Wallingford CT 06492
  
  
 ---------------------------------------------------------------
 Warning -- This program may not be used in any manner that
 competes with the business of Gaussian, Inc. or will provide
 assistance to any competitor of Gaussian, Inc.  The licensee
 of this program is prohibited from giving any competitor of
 Gaussian, Inc. access to this program.  By using this program,
 the user acknowledges that Gaussian, Inc. is engaged in the
 business of creating and licensing software in the field of
 computational chemistry and represents and warrants to the
 licensee that it is not a competitor of Gaussian, Inc. and that
 it will not use this program in any manner prohibited above.
 ---------------------------------------------------------------
  

 Cite this work as:
 Gaussian 16, Revision A.03,
 M. J. Frisch, G. W. Trucks, H. B. Schlegel, G. E. Scuseria, 
 M. A. Robb, J. R. Cheeseman, G. Scalmani, V. Barone, 
 G. A. Petersson, H. Nakatsuji, X. Li, M. Caricato, A. V. Marenich, 
 J. Bloino, B. G. Janesko, R. Gomperts, B. Mennucci, H. P. Hratchian, 
 J. V. Ortiz, A. F. Izmaylov, J. L. Sonnenberg, D. Williams-Young, 
 F. Ding, F. Lipparini, F. Egidi, J. Goings, B. Peng, A. Petrone, 
 T. Henderson, D. Ranasinghe, V. G. Zakrzewski, J. Gao, N. Rega, 
 G. Zheng, W. Liang, M. Hada, M. Ehara, K. Toyota, R. Fukuda, 
 J. Hasegawa, M. Ishida, T. Nakajima, Y. Honda, O. Kitao, H. Nakai, 
 T. Vreven, K. Throssell, J. A. Montgomery, Jr., J. E. Peralta, 
 F. Ogliaro, M. J. Bearpark, J. J. Heyd, E. N. Brothers, K. N. Kudin, 
 V. N. Staroverov, T. A. Keith, R. Kobayashi, J. Normand, 
 K. Raghavachari, A. P. Rendell, J. C. Burant, S. S. Iyengar, 
 J. Tomasi, M. Cossi, J. M. Millam, M. Klene, C. Adamo, R. Cammi, 
 J. W. Ochterski, R. L. Martin, K. Morokuma, O. Farkas, 
 J. B. Foresman, and D. J. Fox, Gaussian, Inc., Wallingford CT, 2016.
 
 ******************************************
 Gaussian 16:  EM64M-G16RevA.03 25-Dec-2016
                 6-Sep-2024 
 ******************************************
 %chk=N2_DFT_WB97XD_apVTZ_Opt_Freq_Full.chk
 ----------------------------------------------------------------------
 #p opt freq=raman wb97xd/aug-cc-pvtz guess=save pop=(hirshfeld,full) g
 eom=connectivity polar
 ----------------------------------------------------------------------
 1/18=20,19=15,26=3,38=1,57=2/1,3;
 2/9=110,12=2,17=6,18=5,40=1/2;
 3/5=16,6=1,7=10,11=2,25=1,30=1,71=1,74=-58/1,2,3;
 4//1;
 5/5=2,38=5,98=1/2;
 6/7=3,28=1,79=1/1;
 7//1,2,3,16;
 1/18=20,19=15,26=3/3(2);
 2/9=110/2;
 99//99;
 2/9=110/2;
 3/5=16,6=1,7=10,11=2,25=1,30=1,71=1,74=-58/1,2,3;
 4/5=5,16=3,69=1/1;
 5/5=2,38=5,98=1/2;
 7//1,2,3,16;
 1/18=20,19=15,26=3/3(-5);
 2/9=110/2;
 6/7=3,19=2,28=1,79=1/1;
 99/9=1/99;
 Leave Link    1 at Fri Sep  6 09:53:16 2024, MaxMem=           0 cpu:               0.0 elap:               0.0
 (Enter /Users/asuyarger/Applications/G16/g16/l101.exe)
 -----------------------------------
 N2 Opt Freq HF 6-311++g(2d,3p) Full
 -----------------------------------
 Symbolic Z-matrix:
 Charge =  0 Multiplicity = 1
 N                     0.63322   0.52632   0. 
 N                    -0.45878   0.52632   0. 
 
 ITRead=  0  0
 MicOpt= -1 -1
 NAtoms=      2 NQM=        2 NQMF=       0 NMMI=      0 NMMIF=      0
                NMic=       0 NMicF=      0.
                    Isotopes and Nuclear Properties:
 (Nuclear quadrupole moments (NQMom) in fm**2, nuclear magnetic moments (NMagM)
  in nuclear magnetons)

  Atom         1           2
 IAtWgt=          14          14
 AtmWgt=  14.0030740  14.0030740
 NucSpn=           2           2
 AtZEff=  -0.0000000  -0.0000000
 NQMom=    2.0440000   2.0440000
 NMagM=    0.4037610   0.4037610
 AtZNuc=   7.0000000   7.0000000
 Leave Link  101 at Fri Sep  6 09:53:16 2024, MaxMem=   104857600 cpu:               0.1 elap:               0.1
 (Enter /Users/asuyarger/Applications/G16/g16/l103.exe)

 GradGradGradGradGradGradGradGradGradGradGradGradGradGradGradGradGradGrad
 Berny optimization.
 Initialization pass.
                           ----------------------------
                           !    Initial Parameters    !
                           ! (Angstroms and Degrees)  !
 --------------------------                            --------------------------
 ! Name  Definition              Value          Derivative Info.                !
 --------------------------------------------------------------------------------
 ! R1    R(1,2)                  1.092          estimate D2E/DX2                !
 --------------------------------------------------------------------------------
 Trust Radius=3.00D-01 FncErr=1.00D-07 GrdErr=1.00D-06 EigMax=2.50D+02 EigMin=1.00D-04
 Number of steps in this run=     20 maximum allowed number of steps=    100.
 GradGradGradGradGradGradGradGradGradGradGradGradGradGradGradGradGradGrad

 Leave Link  103 at Fri Sep  6 09:53:16 2024, MaxMem=   104857600 cpu:               0.0 elap:               0.0
 (Enter /Users/asuyarger/Applications/G16/g16/l202.exe)
                          Input orientation:                          
 ---------------------------------------------------------------------
 Center     Atomic      Atomic             Coordinates (Angstroms)
 Number     Number       Type             X           Y           Z
 ---------------------------------------------------------------------
      1          7           0        0.633224    0.526316    0.000000
      2          7           0       -0.458776    0.526316    0.000000
 ---------------------------------------------------------------------
 Stoichiometry    N2
 Framework group  D*H[C*(N.N)]
 Deg. of freedom     1
 Full point group                 D*H     NOp   8
 Largest Abelian subgroup         D2H     NOp   8
 Largest concise Abelian subgroup C2      NOp   2
                         Standard orientation:                         
 ---------------------------------------------------------------------
 Center     Atomic      Atomic             Coordinates (Angstroms)
 Number     Number       Type             X           Y           Z
 ---------------------------------------------------------------------
      1          7           0        0.000000    0.000000    0.546000
      2          7           0        0.000000    0.000000   -0.546000
 ---------------------------------------------------------------------
 Rotational constants (GHZ):           0.0000000          60.5310956          60.5310956
 Leave Link  202 at Fri Sep  6 09:53:16 2024, MaxMem=   104857600 cpu:               0.0 elap:               0.0
 (Enter /Users/asuyarger/Applications/G16/g16/l301.exe)
 Standard basis: Aug-CC-pVTZ (5D, 7F)
 Ernie: Thresh=  0.10000D-02 Tol=  0.10000D-05 Strict=F.
 Ernie:  6 primitive shells out of 60 were deleted.
 There are    24 symmetry adapted cartesian basis functions of AG  symmetry.
 There are     5 symmetry adapted cartesian basis functions of B1G symmetry.
 There are    13 symmetry adapted cartesian basis functions of B2G symmetry.
 There are    13 symmetry adapted cartesian basis functions of B3G symmetry.
 There are     5 symmetry adapted cartesian basis functions of AU  symmetry.
 There are    24 symmetry adapted cartesian basis functions of B1U symmetry.
 There are    13 symmetry adapted cartesian basis functions of B2U symmetry.
 There are    13 symmetry adapted cartesian basis functions of B3U symmetry.
 There are    19 symmetry adapted basis functions of AG  symmetry.
 There are     5 symmetry adapted basis functions of B1G symmetry.
 There are    11 symmetry adapted basis functions of B2G symmetry.
 There are    11 symmetry adapted basis functions of B3G symmetry.
 There are     5 symmetry adapted basis functions of AU  symmetry.
 There are    19 symmetry adapted basis functions of B1U symmetry.
 There are    11 symmetry adapted basis functions of B2U symmetry.
 There are    11 symmetry adapted basis functions of B3U symmetry.
    92 basis functions,   144 primitive gaussians,   110 cartesian basis functions
     7 alpha electrons        7 beta electrons
       nuclear repulsion energy        23.7451312592 Hartrees.
 IExCor= 4639 DFT=T Ex+Corr=wB97XD ExCW=0 ScaHFX=  1.000000
 ScaDFX=  1.000000  1.000000  1.000000  1.000000 ScalE2=  1.000000  1.000000
 IRadAn=      5 IRanWt=     -1 IRanGd=            0 ICorTp=0 IEmpDi=121
 HFx  wShort=  0.000000 wLong=  0.200000 cFull=  0.222036 cShort=  0.000000 cLong=  0.777964
 DFx  wShort=  0.000000 wLong=  0.200000 cFull=  0.000000 cShort=  0.000000 cLong=  1.000000
 NAtoms=    2 NActive=    2 NUniq=    1 SFac= 4.00D+00 NAtFMM=   60 NAOKFM=F Big=F
 Integral buffers will be    131072 words long.
 Raffenetti 2 integral format.
 Two-electron integral symmetry is turned on.
 R6Disp:  Grimme-D2 Dispersion energy=       -0.0000005850 Hartrees.
 Nuclear repulsion after empirical dispersion term =       23.7451306742 Hartrees.
 Leave Link  301 at Fri Sep  6 09:53:16 2024, MaxMem=   104857600 cpu:               0.0 elap:               0.0
 (Enter /Users/asuyarger/Applications/G16/g16/l302.exe)
 NPDir=0 NMtPBC=     1 NCelOv=     1 NCel=       1 NClECP=     1 NCelD=      1
         NCelK=      1 NCelE2=     1 NClLst=     1 CellRange=     0.0.
 One-electron integrals computed using PRISM.
 One-electron integral symmetry used in STVInt
 NBasis=    92 RedAO= T EigKep=  6.72D-05  NBF=    19     5    11    11     5    19    11    11
 NBsUse=    92 1.00D-06 EigRej= -1.00D+00 NBFU=    19     5    11    11     5    19    11    11
 Precomputing XC quadrature grid using
 IXCGrd= 4 IRadAn=           5 IRanWt=          -1 IRanGd=           0 AccXCQ= 0.00D+00.
 Generated NRdTot=       0 NPtTot=           0 NUsed=           0 NTot=          32
 NSgBfM=   110   110   110   110   110 MxSgAt=     2 MxSgA2=     2.
 Leave Link  302 at Fri Sep  6 09:53:17 2024, MaxMem=   104857600 cpu:               0.1 elap:               0.1
 (Enter /Users/asuyarger/Applications/G16/g16/l303.exe)
 DipDrv:  MaxL=1.
 Leave Link  303 at Fri Sep  6 09:53:17 2024, MaxMem=   104857600 cpu:               0.0 elap:               0.0
 (Enter /Users/asuyarger/Applications/G16/g16/l401.exe)
 ExpMin= 4.91D-02 ExpMax= 1.14D+04 ExpMxC= 3.89D+02 IAcc=3 IRadAn=         5 AccDes= 0.00D+00
 Harris functional with IExCor= 4639 and IRadAn=       5 diagonalized for initial guess.
 HarFok:  IExCor= 4639 AccDes= 0.00D+00 IRadAn=         5 IDoV= 1 UseB2=F ITyADJ=14
 ICtDFT=  3500011 ScaDFX=  1.000000  1.000000  1.000000  1.000000
 FoFCou: FMM=F IPFlag=           0 FMFlag=      100000 FMFlg1=           0
         NFxFlg=           0 DoJE=T BraDBF=F KetDBF=T FulRan=T
         wScrn=  0.000000 ICntrl=       500 IOpCl=  0 I1Cent=   200000004 NGrid=           0
         NMat0=    1 NMatS0=      1 NMatT0=    0 NMatD0=    1 NMtDS0=    0 NMtDT0=    0
 Petite list used in FoFCou.
 Harris En= -105.460315703640    
 JPrj=0 DoOrth=F DoCkMO=F.
 Initial guess orbital symmetries:
       Occupied  (SGG) (SGU) (SGG) (SGU) (PIU) (PIU) (SGG)
       Virtual   (SGU) (PIG) (PIG) (SGG) (PIU) (PIU) (SGG) (PIG)
                 (PIG) (SGU) (DLTG) (DLTG) (SGG) (SGU) (PIU) (PIU)
                 (PIG) (PIG) (DLTU) (DLTU) (PIU) (PIU) (SGG) (SGU)
                 (SGU) (PIG) (PIG) (SGG) (DLTG) (DLTG) (PHIU) (PHIU)
                 (PIU) (PIU) (DLTU) (DLTU) (SGU) (SGG) (DLTG) (DLTG)
                 (PIG) (PIG) (PHIG) (PHIG) (SGU) (PIU) (PIU) (DLTU)
                 (DLTU) (PIG) (PIG) (SGU) (SGG) (PIU) (PIU) (SGG)
                 (PIG) (PIG) (DLTG) (DLTG) (SGU) (PIU) (PIU) (SGG)
                 (PHIU) (PHIU) (DLTG) (DLTG) (PHIG) (PHIG) (DLTU)
                 (DLTU) (SGU) (PIG) (PIG) (PIU) (PIU) (DLTU) (DLTU)
                 (SGG) (SGU) (PIG) (PIG) (SGG) (SGU)
 The electronic state of the initial guess is 1-SGG.
 Leave Link  401 at Fri Sep  6 09:53:17 2024, MaxMem=   104857600 cpu:               0.1 elap:               0.1
 (Enter /Users/asuyarger/Applications/G16/g16/l502.exe)
 Keep R1 ints in memory in symmetry-blocked form, NReq=20662687.
 FoFCou: FMM=F IPFlag=           0 FMFlag=           0 FMFlg1=           0
         NFxFlg=           0 DoJE=F BraDBF=F KetDBF=F FulRan=T
         wScrn=  0.000000 ICntrl=       600 IOpCl=  0 I1Cent=           0 NGrid=           0
         NMat0=    1 NMatS0=   4278 NMatT0=    0 NMatD0=    1 NMtDS0=    0 NMtDT0=    0
 Petite list used in FoFCou.
 Closed shell SCF:
 Using DIIS extrapolation, IDIIS=  1040.
 NGot=   104857600 LenX=   103645823 LenY=   103633282
 Requested convergence on RMS density matrix=1.00D-08 within 128 cycles.
 Requested convergence on MAX density matrix=1.00D-06.
 Requested convergence on             energy=1.00D-06.
 No special actions if energy rises.

 Cycle   1  Pass 1  IDiag  1:
 E= -109.469074120355    
 DIIS: error= 7.95D-02 at cycle   1 NSaved=   1.
 NSaved= 1 IEnMin= 1 EnMin= -109.469074120355     IErMin= 1 ErrMin= 7.95D-02
 ErrMax= 7.95D-02  0.00D+00 EMaxC= 1.00D-01 BMatC= 2.07D-01 BMatP= 2.07D-01
 IDIUse=3 WtCom= 2.05D-01 WtEn= 7.95D-01
 Coeff-Com:  0.100D+01
 Coeff-En:   0.100D+01
 Coeff:      0.100D+01
 Gap=     0.612 Goal=   None    Shift=    0.000
 GapD=    0.612 DampG=2.000 DampE=0.500 DampFc=1.0000 IDamp=-1.
 RMSDP=5.84D-03 MaxDP=1.86D-01              OVMax= 1.05D-01

 Cycle   2  Pass 1  IDiag  1:
 E= -109.520792417069     Delta-E=       -0.051718296714 Rises=F Damp=F
 DIIS: error= 1.49D-02 at cycle   2 NSaved=   2.
 NSaved= 2 IEnMin= 2 EnMin= -109.520792417069     IErMin= 2 ErrMin= 1.49D-02
 ErrMax= 1.49D-02  0.00D+00 EMaxC= 1.00D-01 BMatC= 1.49D-02 BMatP= 2.07D-01
 IDIUse=3 WtCom= 8.51D-01 WtEn= 1.49D-01
 Coeff-Com:  0.169D+00 0.831D+00
 Coeff-En:   0.000D+00 0.100D+01
 Coeff:      0.144D+00 0.856D+00
 Gap=     0.578 Goal=   None    Shift=    0.000
 RMSDP=3.35D-03 MaxDP=1.27D-01 DE=-5.17D-02 OVMax= 2.89D-02

 Cycle   3  Pass 1  IDiag  1:
 E= -109.529035933837     Delta-E=       -0.008243516768 Rises=F Damp=F
 DIIS: error= 3.68D-03 at cycle   3 NSaved=   3.
 NSaved= 3 IEnMin= 3 EnMin= -109.529035933837     IErMin= 3 ErrMin= 3.68D-03
 ErrMax= 3.68D-03  0.00D+00 EMaxC= 1.00D-01 BMatC= 7.62D-04 BMatP= 1.49D-02
 IDIUse=3 WtCom= 9.63D-01 WtEn= 3.68D-02
 Coeff-Com:  0.915D-03 0.180D+00 0.819D+00
 Coeff-En:   0.000D+00 0.000D+00 0.100D+01
 Coeff:      0.882D-03 0.173D+00 0.826D+00
 Gap=     0.574 Goal=   None    Shift=    0.000
 RMSDP=2.99D-04 MaxDP=6.83D-03 DE=-8.24D-03 OVMax= 8.35D-03

 Cycle   4  Pass 1  IDiag  1:
 E= -109.529600016793     Delta-E=       -0.000564082956 Rises=F Damp=F
 DIIS: error= 4.39D-04 at cycle   4 NSaved=   4.
 NSaved= 4 IEnMin= 4 EnMin= -109.529600016793     IErMin= 4 ErrMin= 4.39D-04
 ErrMax= 4.39D-04  0.00D+00 EMaxC= 1.00D-01 BMatC= 7.13D-06 BMatP= 7.62D-04
 IDIUse=3 WtCom= 9.96D-01 WtEn= 4.39D-03
 Coeff-Com: -0.218D-02-0.176D-01 0.251D-01 0.995D+00
 Coeff-En:   0.000D+00 0.000D+00 0.000D+00 0.100D+01
 Coeff:     -0.217D-02-0.175D-01 0.250D-01 0.995D+00
 Gap=     0.574 Goal=   None    Shift=    0.000
 RMSDP=2.11D-04 MaxDP=8.26D-03 DE=-5.64D-04 OVMax= 1.23D-03

 Cycle   5  Pass 1  IDiag  1:
 E= -109.529607530975     Delta-E=       -0.000007514182 Rises=F Damp=F
 DIIS: error= 4.62D-05 at cycle   5 NSaved=   5.
 NSaved= 5 IEnMin= 5 EnMin= -109.529607530975     IErMin= 5 ErrMin= 4.62D-05
 ErrMax= 4.62D-05  0.00D+00 EMaxC= 1.00D-01 BMatC= 1.41D-07 BMatP= 7.13D-06
 IDIUse=1 WtCom= 1.00D+00 WtEn= 0.00D+00
 Coeff-Com:  0.802D-05-0.781D-02-0.320D-01-0.112D-01 0.105D+01
 Coeff:      0.802D-05-0.781D-02-0.320D-01-0.112D-01 0.105D+01
 Gap=     0.574 Goal=   None    Shift=    0.000
 RMSDP=5.00D-05 MaxDP=1.94D-03 DE=-7.51D-06 OVMax= 3.38D-04

 Cycle   6  Pass 1  IDiag  1:
 E= -109.529607773881     Delta-E=       -0.000000242906 Rises=F Damp=F
 DIIS: error= 7.69D-06 at cycle   6 NSaved=   6.
 NSaved= 6 IEnMin= 6 EnMin= -109.529607773881     IErMin= 6 ErrMin= 7.69D-06
 ErrMax= 7.69D-06  0.00D+00 EMaxC= 1.00D-01 BMatC= 1.38D-09 BMatP= 1.41D-07
 IDIUse=1 WtCom= 1.00D+00 WtEn= 0.00D+00
 Coeff-Com:  0.419D-04 0.109D-02 0.205D-02-0.132D-01-0.852D-01 0.110D+01
 Coeff:      0.419D-04 0.109D-02 0.205D-02-0.132D-01-0.852D-01 0.110D+01
 Gap=     0.574 Goal=   None    Shift=    0.000
 RMSDP=9.28D-07 MaxDP=2.34D-05 DE=-2.43D-07 OVMax= 3.92D-05

 Cycle   7  Pass 1  IDiag  1:
 E= -109.529607776614     Delta-E=       -0.000000002733 Rises=F Damp=F
 DIIS: error= 6.62D-07 at cycle   7 NSaved=   7.
 NSaved= 7 IEnMin= 7 EnMin= -109.529607776614     IErMin= 7 ErrMin= 6.62D-07
 ErrMax= 6.62D-07  0.00D+00 EMaxC= 1.00D-01 BMatC= 1.45D-11 BMatP= 1.38D-09
 IDIUse=1 WtCom= 1.00D+00 WtEn= 0.00D+00
 Coeff-Com: -0.683D-05-0.935D-04 0.192D-04 0.246D-02-0.103D-02-0.172D+00
 Coeff-Com:  0.117D+01
 Coeff:     -0.683D-05-0.935D-04 0.192D-04 0.246D-02-0.103D-02-0.172D+00
 Coeff:      0.117D+01
 Gap=     0.574 Goal=   None    Shift=    0.000
 RMSDP=1.33D-07 MaxDP=3.15D-06 DE=-2.73D-09 OVMax= 3.44D-06

 Cycle   8  Pass 1  IDiag  1:
 E= -109.529607776659     Delta-E=       -0.000000000044 Rises=F Damp=F
 DIIS: error= 8.99D-08 at cycle   8 NSaved=   8.
 NSaved= 8 IEnMin= 8 EnMin= -109.529607776659     IErMin= 8 ErrMin= 8.99D-08
 ErrMax= 8.99D-08  0.00D+00 EMaxC= 1.00D-01 BMatC= 2.71D-13 BMatP= 1.45D-11
 IDIUse=1 WtCom= 1.00D+00 WtEn= 0.00D+00
 Coeff-Com:  0.410D-06-0.251D-05-0.393D-04-0.627D-04 0.121D-02 0.704D-02
 Coeff-Com: -0.138D+00 0.113D+01
 Coeff:      0.410D-06-0.251D-05-0.393D-04-0.627D-04 0.121D-02 0.704D-02
 Coeff:     -0.138D+00 0.113D+01
 Gap=     0.574 Goal=   None    Shift=    0.000
 RMSDP=2.81D-08 MaxDP=1.00D-06 DE=-4.44D-11 OVMax= 2.91D-07

 Cycle   9  Pass 1  IDiag  1:
 E= -109.529607776659     Delta-E=       -0.000000000000 Rises=F Damp=F
 DIIS: error= 7.88D-09 at cycle   9 NSaved=   9.
 NSaved= 9 IEnMin= 9 EnMin= -109.529607776659     IErMin= 9 ErrMin= 7.88D-09
 ErrMax= 7.88D-09  0.00D+00 EMaxC= 1.00D-01 BMatC= 2.92D-15 BMatP= 2.71D-13
 IDIUse=1 WtCom= 1.00D+00 WtEn= 0.00D+00
 Coeff-Com: -0.142D-07 0.956D-06 0.568D-05-0.226D-04-0.133D-03 0.417D-03
 Coeff-Com:  0.116D-01-0.203D+00 0.119D+01
 Coeff:     -0.142D-07 0.956D-06 0.568D-05-0.226D-04-0.133D-03 0.417D-03
 Coeff:      0.116D-01-0.203D+00 0.119D+01
 Gap=     0.574 Goal=   None    Shift=    0.000
 RMSDP=9.03D-09 MaxDP=3.42D-07 DE=-3.41D-13 OVMax= 4.88D-08

 SCF Done:  E(RwB97XD) =  -109.529607777     A.U. after    9 cycles
            NFock=  9  Conv=0.90D-08     -V/T= 2.0053
 KE= 1.089522437736D+02 PE=-3.037644087398D+02 EE= 6.153742651536D+01
 Leave Link  502 at Fri Sep  6 09:53:18 2024, MaxMem=   104857600 cpu:               1.3 elap:               1.3
 (Enter /Users/asuyarger/Applications/G16/g16/l601.exe)
 Copying SCF densities to generalized density rwf, IOpCl= 0 IROHF=0.

 **********************************************************************

            Population analysis using the SCF density.

 **********************************************************************

 Orbital symmetries:
       Occupied  (SGG) (SGU) (SGG) (SGU) (PIU) (PIU) (SGG)
       Virtual   (PIG) (PIG) (SGU) (SGG) (PIU) (PIU) (SGG) (PIG)
                 (PIG) (SGU) (DLTG) (DLTG) (SGG) (SGU) (PIG) (PIG)
                 (PIU) (PIU) (DLTU) (DLTU) (PIU) (PIU) (SGG) (SGU)
                 (SGU) (PIG) (PIG) (SGG) (DLTG) (DLTG) (PHIU) (PHIU)
                 (PIU) (PIU) (DLTU) (DLTU) (SGU) (SGG) (DLTG) (DLTG)
                 (PIG) (PIG) (PHIG) (PHIG) (SGU) (PIU) (PIU) (DLTU)
                 (DLTU) (PIG) (PIG) (SGU) (SGG) (PIU) (PIU) (SGG)
                 (PIG) (PIG) (DLTG) (DLTG) (SGU) (SGG) (PIU) (PIU)
                 (PHIU) (PHIU) (DLTG) (DLTG) (PHIG) (PHIG) (DLTU)
                 (DLTU) (SGU) (PIG) (PIG) (PIU) (PIU) (DLTU) (DLTU)
                 (SGG) (SGU) (PIG) (PIG) (SGG) (SGU)
 The electronic state is 1-SGG.
 Alpha  occ. eigenvalues --  -14.54077 -14.53882  -1.23288  -0.64840  -0.55826
 Alpha  occ. eigenvalues --   -0.55826  -0.52379
 Alpha virt. eigenvalues --    0.05021   0.05021   0.08721   0.11730   0.12582
 Alpha virt. eigenvalues --    0.12582   0.16058   0.17437   0.17437   0.27561
 Alpha virt. eigenvalues --    0.38257   0.38257   0.44620   0.50246   0.54172
 Alpha virt. eigenvalues --    0.54172   0.54213   0.54213   0.56439   0.56439
 Alpha virt. eigenvalues --    0.64128   0.64128   0.68725   0.69260   0.91841
 Alpha virt. eigenvalues --    0.97014   0.97014   1.12112   1.21360   1.21360
 Alpha virt. eigenvalues --    1.26481   1.26481   1.33449   1.33449   1.44184
 Alpha virt. eigenvalues --    1.44184   1.48577   1.56622   1.58414   1.58414
 Alpha virt. eigenvalues --    1.60032   1.60032   1.61823   1.61823   1.84970
 Alpha virt. eigenvalues --    2.01938   2.01938   2.17609   2.17609   2.25478
 Alpha virt. eigenvalues --    2.25478   2.55748   2.57829   2.98195   2.98195
 Alpha virt. eigenvalues --    3.71620   3.98597   3.98597   4.10951   4.10951
 Alpha virt. eigenvalues --    4.19806   4.22772   4.23767   4.23767   4.38373
 Alpha virt. eigenvalues --    4.38373   4.74820   4.74820   4.76500   4.76500
 Alpha virt. eigenvalues --    4.83486   4.83486   4.89279   5.07830   5.07830
 Alpha virt. eigenvalues --    5.26446   5.26446   5.44190   5.44190   6.35516
 Alpha virt. eigenvalues --    6.39843   6.55076   6.55076  10.41084  18.75505
     Molecular Orbital Coefficients:
                           1         2         3         4         5
                       (SGG)--O  (SGU)--O  (SGG)--O  (SGU)--O  (PIU)--O
     Eigenvalues --   -14.54077 -14.53882  -1.23288  -0.64840  -0.55826
   1 1   N  1S          0.68938   0.69021  -0.15856  -0.14384   0.00000
   2        2S         -0.00161   0.00162   0.34341   0.36121   0.00000
   3        3S          0.03699   0.03473   0.09756   0.10528   0.00000
   4        4S          0.00176   0.06564   0.10549   0.55803   0.00000
   5        5S         -0.00170   0.01781  -0.00462   0.08696   0.00000
   6        6PX         0.00000   0.00000   0.00000   0.00000   0.24780
   7        6PY         0.00000   0.00000   0.00000   0.00000   0.00000
   8        6PZ        -0.00227  -0.00059  -0.13566   0.11603   0.00000
   9        7PX         0.00000   0.00000   0.00000   0.00000   0.30719
  10        7PY         0.00000   0.00000   0.00000   0.00000   0.00000
  11        7PZ        -0.00004  -0.01348  -0.13041   0.12893   0.00000
  12        8PX         0.00000   0.00000   0.00000   0.00000   0.16211
  13        8PY         0.00000   0.00000   0.00000   0.00000   0.00000
  14        8PZ         0.00765  -0.02864   0.00059  -0.04468   0.00000
  15        9PX         0.00000   0.00000   0.00000   0.00000   0.00507
  16        9PY         0.00000   0.00000   0.00000   0.00000   0.00000
  17        9PZ         0.00108  -0.00315   0.00903  -0.00776   0.00000
  18       10D 0        0.00080   0.00166   0.01761  -0.00544   0.00000
  19       10D+1        0.00000   0.00000   0.00000   0.00000  -0.01794
  20       10D-1        0.00000   0.00000   0.00000   0.00000   0.00000
  21       10D+2        0.00000   0.00000  -0.00000   0.00000   0.00000
  22       10D-2        0.00000   0.00000   0.00000   0.00000   0.00000
  23       11D 0       -0.00361   0.00679   0.01218  -0.00515   0.00000
  24       11D+1        0.00000   0.00000   0.00000   0.00000  -0.03047
  25       11D-1        0.00000   0.00000   0.00000   0.00000   0.00000
  26       11D+2       -0.00000  -0.00000  -0.00000  -0.00000   0.00000
  27       11D-2        0.00000   0.00000   0.00000   0.00000   0.00000
  28       12D 0       -0.00329   0.00437  -0.01254   0.01853   0.00000
  29       12D+1        0.00000   0.00000   0.00000   0.00000  -0.00606
  30       12D-1        0.00000   0.00000   0.00000   0.00000   0.00000
  31       12D+2        0.00000  -0.00000   0.00000   0.00000   0.00000
  32       12D-2        0.00000   0.00000   0.00000   0.00000   0.00000
  33       13F 0        0.00043  -0.00168  -0.00660  -0.00030   0.00000
  34       13F+1        0.00000   0.00000   0.00000   0.00000   0.00722
  35       13F-1        0.00000   0.00000   0.00000   0.00000   0.00000
  36       13F+2       -0.00000  -0.00000   0.00000   0.00000   0.00000
  37       13F-2        0.00000   0.00000   0.00000   0.00000   0.00000
  38       13F+3        0.00000   0.00000   0.00000   0.00000  -0.00000
  39       13F-3        0.00000   0.00000   0.00000   0.00000   0.00000
  40       14F 0        0.00189  -0.00115   0.00292   0.00068   0.00000
  41       14F+1        0.00000   0.00000   0.00000   0.00000   0.00028
  42       14F-1        0.00000   0.00000   0.00000   0.00000   0.00000
  43       14F+2        0.00000   0.00000  -0.00000  -0.00000   0.00000
  44       14F-2        0.00000   0.00000   0.00000   0.00000   0.00000
  45       14F+3        0.00000   0.00000   0.00000   0.00000   0.00000
  46       14F-3        0.00000   0.00000   0.00000   0.00000   0.00000
  47 2   N  1S          0.68938  -0.69021  -0.15856   0.14384   0.00000
  48        2S         -0.00161  -0.00162   0.34341  -0.36121   0.00000
  49        3S          0.03699  -0.03473   0.09756  -0.10528   0.00000
  50        4S          0.00176  -0.06564   0.10549  -0.55803   0.00000
  51        5S         -0.00170  -0.01781  -0.00462  -0.08696   0.00000
  52        6PX         0.00000   0.00000   0.00000   0.00000   0.24780
  53        6PY         0.00000   0.00000   0.00000   0.00000   0.00000
  54        6PZ         0.00227  -0.00059   0.13566   0.11603   0.00000
  55        7PX         0.00000   0.00000   0.00000   0.00000   0.30719
  56        7PY         0.00000   0.00000   0.00000   0.00000   0.00000
  57        7PZ         0.00004  -0.01348   0.13041   0.12893   0.00000
  58        8PX         0.00000   0.00000   0.00000   0.00000   0.16211
  59        8PY         0.00000   0.00000   0.00000   0.00000   0.00000
  60        8PZ        -0.00765  -0.02864  -0.00059  -0.04468   0.00000
  61        9PX         0.00000   0.00000   0.00000   0.00000   0.00507
  62        9PY         0.00000   0.00000   0.00000   0.00000   0.00000
  63        9PZ        -0.00108  -0.00315  -0.00903  -0.00776   0.00000
  64       10D 0        0.00080  -0.00166   0.01761   0.00544   0.00000
  65       10D+1        0.00000   0.00000   0.00000   0.00000   0.01794
  66       10D-1        0.00000   0.00000   0.00000   0.00000   0.00000
  67       10D+2        0.00000  -0.00000  -0.00000  -0.00000   0.00000
  68       10D-2        0.00000   0.00000   0.00000   0.00000   0.00000
  69       11D 0       -0.00361  -0.00679   0.01218   0.00515   0.00000
  70       11D+1        0.00000   0.00000   0.00000   0.00000   0.03047
  71       11D-1        0.00000   0.00000   0.00000   0.00000   0.00000
  72       11D+2       -0.00000   0.00000  -0.00000   0.00000   0.00000
  73       11D-2        0.00000   0.00000   0.00000   0.00000   0.00000
  74       12D 0       -0.00329  -0.00437  -0.01254  -0.01853   0.00000
  75       12D+1        0.00000   0.00000   0.00000   0.00000   0.00606
  76       12D-1        0.00000   0.00000   0.00000   0.00000   0.00000
  77       12D+2        0.00000   0.00000   0.00000  -0.00000   0.00000
  78       12D-2        0.00000   0.00000   0.00000   0.00000   0.00000
  79       13F 0       -0.00043  -0.00168   0.00660  -0.00030   0.00000
  80       13F+1        0.00000   0.00000   0.00000   0.00000   0.00722
  81       13F-1        0.00000   0.00000   0.00000   0.00000   0.00000
  82       13F+2        0.00000  -0.00000  -0.00000   0.00000   0.00000
  83       13F-2        0.00000   0.00000   0.00000   0.00000   0.00000
  84       13F+3        0.00000   0.00000   0.00000   0.00000  -0.00000
  85       13F-3        0.00000   0.00000   0.00000   0.00000   0.00000
  86       14F 0       -0.00189  -0.00115  -0.00292   0.00068   0.00000
  87       14F+1        0.00000   0.00000   0.00000   0.00000   0.00028
  88       14F-1        0.00000   0.00000   0.00000   0.00000   0.00000
  89       14F+2       -0.00000   0.00000   0.00000  -0.00000   0.00000
  90       14F-2        0.00000   0.00000   0.00000   0.00000   0.00000
  91       14F+3        0.00000   0.00000   0.00000   0.00000   0.00000
  92       14F-3        0.00000   0.00000   0.00000   0.00000   0.00000
                           6         7         8         9        10
                       (PIU)--O  (SGG)--O  (PIG)--V  (PIG)--V  (SGU)--V
     Eigenvalues --    -0.55826  -0.52379   0.05021   0.05021   0.08721
   1 1   N  1S          0.00000  -0.04985   0.00000   0.00000  -0.01986
   2        2S          0.00000   0.12764   0.00000   0.00000   0.06280
   3        3S          0.00000   0.03223   0.00000   0.00000   0.01273
   4        4S          0.00000   0.23776   0.00000   0.00000   4.27322
   5        5S          0.00000   0.03813   0.00000   0.00000  13.29836
   6        6PX         0.00000   0.00000   0.00000   0.25397   0.00000
   7        6PY         0.24780   0.00000   0.25397   0.00000   0.00000
   8        6PZ         0.00000   0.26423   0.00000   0.00000   0.01853
   9        7PX         0.00000   0.00000   0.00000   0.32624   0.00000
  10        7PY         0.30719   0.00000   0.32624   0.00000   0.00000
  11        7PZ         0.00000   0.29342   0.00000   0.00000  -0.12759
  12        8PX         0.00000   0.00000   0.00000   0.46704   0.00000
  13        8PY         0.16211   0.00000   0.46704   0.00000   0.00000
  14        8PZ         0.00000   0.12431   0.00000   0.00000  -2.33263
  15        9PX         0.00000   0.00000   0.00000   0.61511   0.00000
  16        9PY         0.00507   0.00000   0.61511   0.00000   0.00000
  17        9PZ         0.00000   0.00148   0.00000   0.00000  -3.52294
  18       10D 0        0.00000  -0.01837   0.00000   0.00000  -0.00069
  19       10D+1        0.00000   0.00000   0.00000   0.00940   0.00000
  20       10D-1       -0.01794   0.00000   0.00940   0.00000   0.00000
  21       10D+2        0.00000   0.00000   0.00000   0.00000  -0.00000
  22       10D-2        0.00000   0.00000   0.00000   0.00000   0.00000
  23       11D 0        0.00000  -0.00800   0.00000   0.00000   0.10408
  24       11D+1        0.00000   0.00000   0.00000   0.03524   0.00000
  25       11D-1       -0.03047   0.00000   0.03524   0.00000   0.00000
  26       11D+2        0.00000   0.00000   0.00000   0.00000   0.00000
  27       11D-2        0.00000   0.00000   0.00000   0.00000   0.00000
  28       12D 0        0.00000   0.00572   0.00000   0.00000   0.48766
  29       12D+1        0.00000   0.00000   0.00000  -0.03922   0.00000
  30       12D-1       -0.00606   0.00000  -0.03922   0.00000   0.00000
  31       12D+2        0.00000  -0.00000   0.00000   0.00000   0.00000
  32       12D-2        0.00000   0.00000   0.00000   0.00000   0.00000
  33       13F 0        0.00000   0.00451   0.00000   0.00000  -0.00647
  34       13F+1        0.00000   0.00000   0.00000  -0.00545   0.00000
  35       13F-1        0.00722   0.00000  -0.00545   0.00000   0.00000
  36       13F+2        0.00000   0.00000   0.00000   0.00000   0.00000
  37       13F-2        0.00000   0.00000   0.00000   0.00000   0.00000
  38       13F+3        0.00000   0.00000   0.00000  -0.00000   0.00000
  39       13F-3        0.00000   0.00000   0.00000   0.00000   0.00000
  40       14F 0        0.00000  -0.00485   0.00000   0.00000  -0.02350
  41       14F+1        0.00000   0.00000   0.00000  -0.00278   0.00000
  42       14F-1        0.00028   0.00000  -0.00278   0.00000   0.00000
  43       14F+2        0.00000  -0.00000   0.00000   0.00000  -0.00000
  44       14F-2        0.00000   0.00000   0.00000   0.00000   0.00000
  45       14F+3        0.00000   0.00000   0.00000  -0.00000   0.00000
  46       14F-3       -0.00000   0.00000   0.00000   0.00000   0.00000
  47 2   N  1S          0.00000  -0.04985   0.00000   0.00000   0.01986
  48        2S          0.00000   0.12764   0.00000   0.00000  -0.06280
  49        3S          0.00000   0.03223   0.00000   0.00000  -0.01273
  50        4S          0.00000   0.23776   0.00000   0.00000  -4.27322
  51        5S          0.00000   0.03813   0.00000   0.00000 -13.29836
  52        6PX         0.00000   0.00000   0.00000  -0.25397   0.00000
  53        6PY         0.24780   0.00000  -0.25397   0.00000   0.00000
  54        6PZ         0.00000  -0.26423   0.00000   0.00000   0.01853
  55        7PX         0.00000   0.00000   0.00000  -0.32624   0.00000
  56        7PY         0.30719   0.00000  -0.32624   0.00000   0.00000
  57        7PZ         0.00000  -0.29342   0.00000   0.00000  -0.12759
  58        8PX         0.00000   0.00000   0.00000  -0.46704   0.00000
  59        8PY         0.16211   0.00000  -0.46704   0.00000   0.00000
  60        8PZ         0.00000  -0.12431   0.00000   0.00000  -2.33263
  61        9PX         0.00000   0.00000   0.00000  -0.61511   0.00000
  62        9PY         0.00507   0.00000  -0.61511   0.00000   0.00000
  63        9PZ         0.00000  -0.00148   0.00000   0.00000  -3.52294
  64       10D 0        0.00000  -0.01837   0.00000   0.00000   0.00069
  65       10D+1        0.00000   0.00000   0.00000   0.00940   0.00000
  66       10D-1        0.01794   0.00000   0.00940   0.00000   0.00000
  67       10D+2        0.00000   0.00000   0.00000   0.00000   0.00000
  68       10D-2        0.00000   0.00000   0.00000   0.00000   0.00000
  69       11D 0        0.00000  -0.00800   0.00000   0.00000  -0.10408
  70       11D+1        0.00000   0.00000   0.00000   0.03524   0.00000
  71       11D-1        0.03047   0.00000   0.03524   0.00000   0.00000
  72       11D+2        0.00000   0.00000   0.00000   0.00000  -0.00000
  73       11D-2        0.00000   0.00000   0.00000   0.00000   0.00000
  74       12D 0        0.00000   0.00572   0.00000   0.00000  -0.48766
  75       12D+1        0.00000   0.00000   0.00000  -0.03922   0.00000
  76       12D-1        0.00606   0.00000  -0.03922   0.00000   0.00000
  77       12D+2        0.00000  -0.00000   0.00000   0.00000  -0.00000
  78       12D-2        0.00000   0.00000   0.00000   0.00000   0.00000
  79       13F 0        0.00000  -0.00451   0.00000   0.00000  -0.00647
  80       13F+1        0.00000   0.00000   0.00000   0.00545   0.00000
  81       13F-1        0.00722   0.00000   0.00545   0.00000   0.00000
  82       13F+2        0.00000  -0.00000   0.00000   0.00000   0.00000
  83       13F-2        0.00000   0.00000   0.00000   0.00000   0.00000
  84       13F+3        0.00000   0.00000   0.00000   0.00000   0.00000
  85       13F-3        0.00000   0.00000  -0.00000   0.00000   0.00000
  86       14F 0        0.00000   0.00485   0.00000   0.00000  -0.02350
  87       14F+1        0.00000   0.00000   0.00000   0.00278   0.00000
  88       14F-1        0.00028   0.00000   0.00278   0.00000   0.00000
  89       14F+2        0.00000   0.00000   0.00000   0.00000  -0.00000
  90       14F-2        0.00000   0.00000   0.00000   0.00000   0.00000
  91       14F+3        0.00000   0.00000   0.00000   0.00000   0.00000
  92       14F-3       -0.00000   0.00000  -0.00000   0.00000   0.00000
                          11        12        13        14        15
                       (SGG)--V  (PIU)--V  (PIU)--V  (SGG)--V  (PIG)--V
     Eigenvalues --     0.11730   0.12582   0.12582   0.16058   0.17437
   1 1   N  1S          0.03365   0.00000   0.00000  -0.01544   0.00000
   2        2S         -0.11495   0.00000   0.00000   0.12106   0.00000
   3        3S         -0.05508   0.00000   0.00000   0.04774   0.00000
   4        4S         -0.60899   0.00000   0.00000   0.96110   0.00000
   5        5S          0.96462   0.00000   0.00000  -0.39414   0.00000
   6        6PX         0.00000   0.00000  -0.06752   0.00000  -0.11711
   7        6PY         0.00000  -0.06752   0.00000   0.00000   0.00000
   8        6PZ        -0.06256   0.00000   0.00000   0.00284   0.00000
   9        7PX         0.00000   0.00000  -0.04260   0.00000  -0.11427
  10        7PY         0.00000  -0.04260   0.00000   0.00000   0.00000
  11        7PZ        -0.02026   0.00000   0.00000  -0.04584   0.00000
  12        8PX         0.00000   0.00000  -0.21232   0.00000   0.85323
  13        8PY         0.00000  -0.21232   0.00000   0.00000   0.00000
  14        8PZ        -0.38941   0.00000   0.00000   0.51103   0.00000
  15        9PX         0.00000   0.00000   0.61309   0.00000   2.82892
  16        9PY         0.00000   0.61309   0.00000   0.00000   0.00000
  17        9PZ         0.75366   0.00000   0.00000   2.02636   0.00000
  18       10D 0       -0.00484   0.00000   0.00000   0.00509   0.00000
  19       10D+1        0.00000   0.00000   0.00513   0.00000  -0.00209
  20       10D-1        0.00000   0.00513   0.00000   0.00000   0.00000
  21       10D+2        0.00000   0.00000   0.00000   0.00000   0.00000
  22       10D-2        0.00000   0.00000   0.00000   0.00000   0.00000
  23       11D 0        0.04250   0.00000   0.00000   0.00371   0.00000
  24       11D+1        0.00000   0.00000   0.01639   0.00000  -0.05954
  25       11D-1        0.00000   0.01639   0.00000   0.00000   0.00000
  26       11D+2       -0.00000   0.00000   0.00000  -0.00000   0.00000
  27       11D-2        0.00000   0.00000   0.00000   0.00000   0.00000
  28       12D 0        0.07967   0.00000   0.00000  -0.45323   0.00000
  29       12D+1        0.00000   0.00000  -0.02805   0.00000  -0.71467
  30       12D-1        0.00000  -0.02805   0.00000   0.00000   0.00000
  31       12D+2       -0.00000   0.00000   0.00000   0.00000   0.00000
  32       12D-2        0.00000   0.00000   0.00000   0.00000   0.00000
  33       13F 0       -0.00136   0.00000   0.00000  -0.00353   0.00000
  34       13F+1        0.00000   0.00000  -0.00459   0.00000  -0.00374
  35       13F-1        0.00000  -0.00459   0.00000   0.00000   0.00000
  36       13F+2       -0.00000   0.00000   0.00000  -0.00000   0.00000
  37       13F-2        0.00000   0.00000   0.00000   0.00000   0.00000
  38       13F+3        0.00000   0.00000   0.00000   0.00000   0.00000
  39       13F-3        0.00000  -0.00000   0.00000   0.00000   0.00000
  40       14F 0       -0.02714   0.00000   0.00000   0.04404   0.00000
  41       14F+1        0.00000   0.00000   0.00565   0.00000   0.07274
  42       14F-1        0.00000   0.00565   0.00000   0.00000   0.00000
  43       14F+2       -0.00000   0.00000   0.00000   0.00000   0.00000
  44       14F-2        0.00000   0.00000   0.00000   0.00000   0.00000
  45       14F+3        0.00000   0.00000   0.00000   0.00000   0.00000
  46       14F-3        0.00000  -0.00000   0.00000   0.00000   0.00000
  47 2   N  1S          0.03365   0.00000   0.00000  -0.01544   0.00000
  48        2S         -0.11495   0.00000   0.00000   0.12106   0.00000
  49        3S         -0.05508   0.00000   0.00000   0.04774   0.00000
  50        4S         -0.60899   0.00000   0.00000   0.96110   0.00000
  51        5S          0.96462   0.00000   0.00000  -0.39414   0.00000
  52        6PX         0.00000   0.00000  -0.06752   0.00000   0.11711
  53        6PY         0.00000  -0.06752   0.00000   0.00000   0.00000
  54        6PZ         0.06256   0.00000   0.00000  -0.00284   0.00000
  55        7PX         0.00000   0.00000  -0.04260   0.00000   0.11427
  56        7PY         0.00000  -0.04260   0.00000   0.00000   0.00000
  57        7PZ         0.02026   0.00000   0.00000   0.04584   0.00000
  58        8PX         0.00000   0.00000  -0.21232   0.00000  -0.85323
  59        8PY         0.00000  -0.21232   0.00000   0.00000   0.00000
  60        8PZ         0.38941   0.00000   0.00000  -0.51103   0.00000
  61        9PX         0.00000   0.00000   0.61309   0.00000  -2.82892
  62        9PY         0.00000   0.61309   0.00000   0.00000   0.00000
  63        9PZ        -0.75366   0.00000   0.00000  -2.02636   0.00000
  64       10D 0       -0.00484   0.00000   0.00000   0.00509   0.00000
  65       10D+1        0.00000   0.00000  -0.00513   0.00000  -0.00209
  66       10D-1        0.00000  -0.00513   0.00000   0.00000   0.00000
  67       10D+2        0.00000   0.00000   0.00000   0.00000   0.00000
  68       10D-2        0.00000   0.00000   0.00000   0.00000   0.00000
  69       11D 0        0.04250   0.00000   0.00000   0.00371   0.00000
  70       11D+1        0.00000   0.00000  -0.01639   0.00000  -0.05954
  71       11D-1        0.00000  -0.01639   0.00000   0.00000   0.00000
  72       11D+2       -0.00000   0.00000   0.00000  -0.00000   0.00000
  73       11D-2        0.00000   0.00000   0.00000   0.00000   0.00000
  74       12D 0        0.07967   0.00000   0.00000  -0.45323   0.00000
  75       12D+1        0.00000   0.00000   0.02805   0.00000  -0.71467
  76       12D-1        0.00000   0.02805   0.00000   0.00000   0.00000
  77       12D+2       -0.00000   0.00000   0.00000   0.00000   0.00000
  78       12D-2        0.00000   0.00000   0.00000   0.00000   0.00000
  79       13F 0        0.00136   0.00000   0.00000   0.00353   0.00000
  80       13F+1        0.00000   0.00000  -0.00459   0.00000   0.00374
  81       13F-1        0.00000  -0.00459   0.00000   0.00000   0.00000
  82       13F+2        0.00000   0.00000   0.00000   0.00000   0.00000
  83       13F-2        0.00000   0.00000   0.00000   0.00000   0.00000
  84       13F+3        0.00000   0.00000   0.00000   0.00000  -0.00000
  85       13F-3        0.00000  -0.00000   0.00000   0.00000   0.00000
  86       14F 0        0.02714   0.00000   0.00000  -0.04404   0.00000
  87       14F+1        0.00000   0.00000   0.00565   0.00000  -0.07274
  88       14F-1        0.00000   0.00565   0.00000   0.00000   0.00000
  89       14F+2        0.00000   0.00000   0.00000  -0.00000   0.00000
  90       14F-2        0.00000   0.00000   0.00000   0.00000   0.00000
  91       14F+3        0.00000   0.00000   0.00000   0.00000  -0.00000
  92       14F-3        0.00000  -0.00000   0.00000   0.00000   0.00000
                          16        17        18        19        20
                       (PIG)--V  (SGU)--V  (DLTG)--  (DLTG)--  (SGG)--V
     Eigenvalues --     0.17437   0.27561   0.38257   0.38257   0.44620
   1 1   N  1S          0.00000   0.04966   0.00000   0.00000   0.05407
   2        2S          0.00000  -0.11600   0.00000   0.00000   0.03346
   3        3S          0.00000  -0.06292   0.00000   0.00000   0.02194
   4        4S          0.00000   9.23948   0.00000   0.00000   1.85566
   5        5S          0.00000  24.55819  -0.00000   0.00000  -0.79117
   6        6PX         0.00000   0.00000   0.00000   0.00000   0.00000
   7        6PY        -0.11711   0.00000   0.00000   0.00000   0.00000
   8        6PZ         0.00000  -0.01189   0.00000   0.00000   0.05486
   9        7PX         0.00000   0.00000   0.00000   0.00000   0.00000
  10        7PY        -0.11427   0.00000   0.00000   0.00000   0.00000
  11        7PZ         0.00000  -0.39014  -0.00000   0.00000  -0.05829
  12        8PX         0.00000   0.00000   0.00000   0.00000   0.00000
  13        8PY         0.85323   0.00000   0.00000   0.00000   0.00000
  14        8PZ         0.00000  -5.42962   0.00000   0.00000   1.09148
  15        9PX         0.00000   0.00000   0.00000   0.00000   0.00000
  16        9PY         2.82892   0.00000   0.00000   0.00000   0.00000
  17        9PZ         0.00000  -5.10010   0.00000   0.00000   1.67352
  18       10D 0        0.00000   0.00747  -0.00000   0.00000  -0.02132
  19       10D+1        0.00000   0.00000   0.00000   0.00000   0.00000
  20       10D-1       -0.00209   0.00000   0.00000   0.00000   0.00000
  21       10D+2        0.00000  -0.00000   0.02743   0.00000  -0.00000
  22       10D-2        0.00000   0.00000   0.00000   0.02743   0.00000
  23       11D 0        0.00000   0.29761  -0.00000   0.00000  -0.08704
  24       11D+1        0.00000   0.00000   0.00000   0.00000   0.00000
  25       11D-1       -0.05954   0.00000   0.00000   0.00000   0.00000
  26       11D+2        0.00000   0.00000  -0.01733   0.00000   0.00000
  27       11D-2        0.00000   0.00000   0.00000  -0.01733   0.00000
  28       12D 0        0.00000   1.04981  -0.00000   0.00000  -1.49128
  29       12D+1        0.00000   0.00000   0.00000   0.00000   0.00000
  30       12D-1       -0.71467   0.00000   0.00000   0.00000   0.00000
  31       12D+2        0.00000   0.00000   0.54420   0.00000  -0.00000
  32       12D-2        0.00000   0.00000   0.00000   0.54420   0.00000
  33       13F 0        0.00000  -0.02110   0.00000   0.00000   0.00016
  34       13F+1        0.00000   0.00000   0.00000   0.00000   0.00000
  35       13F-1       -0.00374   0.00000   0.00000   0.00000   0.00000
  36       13F+2        0.00000   0.00000  -0.00589   0.00000   0.00000
  37       13F-2        0.00000   0.00000   0.00000  -0.00589   0.00000
  38       13F+3        0.00000   0.00000   0.00000   0.00000   0.00000
  39       13F-3       -0.00000   0.00000   0.00000   0.00000   0.00000
  40       14F 0        0.00000  -0.04545   0.00000   0.00000   0.11814
  41       14F+1        0.00000   0.00000   0.00000   0.00000   0.00000
  42       14F-1        0.07274   0.00000   0.00000   0.00000   0.00000
  43       14F+2        0.00000  -0.00000  -0.00011   0.00000  -0.00000
  44       14F-2        0.00000   0.00000   0.00000  -0.00011   0.00000
  45       14F+3        0.00000   0.00000   0.00000   0.00000   0.00000
  46       14F-3       -0.00000   0.00000   0.00000   0.00000   0.00000
  47 2   N  1S          0.00000  -0.04966   0.00000   0.00000   0.05407
  48        2S          0.00000   0.11600   0.00000   0.00000   0.03346
  49        3S          0.00000   0.06292   0.00000   0.00000   0.02194
  50        4S          0.00000  -9.23948   0.00000   0.00000   1.85566
  51        5S          0.00000 -24.55819  -0.00000   0.00000  -0.79117
  52        6PX         0.00000   0.00000   0.00000   0.00000   0.00000
  53        6PY         0.11711   0.00000   0.00000   0.00000   0.00000
  54        6PZ         0.00000  -0.01189  -0.00000   0.00000  -0.05486
  55        7PX         0.00000   0.00000   0.00000   0.00000   0.00000
  56        7PY         0.11427   0.00000   0.00000   0.00000   0.00000
  57        7PZ         0.00000  -0.39014   0.00000   0.00000   0.05829
  58        8PX         0.00000   0.00000   0.00000   0.00000   0.00000
  59        8PY        -0.85323   0.00000   0.00000   0.00000   0.00000
  60        8PZ         0.00000  -5.42962  -0.00000   0.00000  -1.09148
  61        9PX         0.00000   0.00000   0.00000   0.00000   0.00000
  62        9PY        -2.82892   0.00000   0.00000   0.00000   0.00000
  63        9PZ         0.00000  -5.10010  -0.00000   0.00000  -1.67352
  64       10D 0        0.00000  -0.00747  -0.00000   0.00000  -0.02132
  65       10D+1        0.00000   0.00000   0.00000   0.00000   0.00000
  66       10D-1       -0.00209   0.00000   0.00000   0.00000   0.00000
  67       10D+2        0.00000   0.00000   0.02743   0.00000  -0.00000
  68       10D-2        0.00000   0.00000   0.00000   0.02743   0.00000
  69       11D 0        0.00000  -0.29761  -0.00000   0.00000  -0.08704
  70       11D+1        0.00000   0.00000   0.00000   0.00000   0.00000
  71       11D-1       -0.05954   0.00000   0.00000   0.00000   0.00000
  72       11D+2        0.00000  -0.00000  -0.01733   0.00000   0.00000
  73       11D-2        0.00000   0.00000   0.00000  -0.01733   0.00000
  74       12D 0        0.00000  -1.04981  -0.00000   0.00000  -1.49128
  75       12D+1        0.00000   0.00000   0.00000   0.00000   0.00000
  76       12D-1       -0.71467   0.00000   0.00000   0.00000   0.00000
  77       12D+2        0.00000  -0.00000   0.54420   0.00000  -0.00000
  78       12D-2        0.00000   0.00000   0.00000   0.54420   0.00000
  79       13F 0        0.00000  -0.02110  -0.00000   0.00000  -0.00016
  80       13F+1        0.00000   0.00000   0.00000   0.00000   0.00000
  81       13F-1        0.00374   0.00000   0.00000   0.00000   0.00000
  82       13F+2        0.00000   0.00000   0.00589   0.00000  -0.00000
  83       13F-2        0.00000   0.00000   0.00000   0.00589   0.00000
  84       13F+3        0.00000   0.00000   0.00000   0.00000   0.00000
  85       13F-3        0.00000   0.00000   0.00000   0.00000   0.00000
  86       14F 0        0.00000  -0.04545  -0.00000   0.00000  -0.11814
  87       14F+1        0.00000   0.00000   0.00000   0.00000   0.00000
  88       14F-1       -0.07274   0.00000   0.00000   0.00000   0.00000
  89       14F+2        0.00000  -0.00000   0.00011   0.00000   0.00000
  90       14F-2        0.00000   0.00000   0.00000   0.00011   0.00000
  91       14F+3        0.00000   0.00000   0.00000   0.00000   0.00000
  92       14F-3        0.00000   0.00000   0.00000   0.00000   0.00000
                          21        22        23        24        25
                       (SGU)--V  (PIG)--V  (PIG)--V  (PIU)--V  (PIU)--V
     Eigenvalues --     0.50246   0.54172   0.54172   0.54213   0.54213
   1 1   N  1S          0.02194   0.00000   0.00000   0.00000   0.00000
   2        2S         -0.09551   0.00000   0.00000   0.00000   0.00000
   3        3S         -0.02325   0.00000   0.00000   0.00000   0.00000
   4        4S          7.20118   0.00000   0.00000   0.00000   0.00000
   5        5S          1.73056   0.00000   0.00000   0.00000   0.00000
   6        6PX         0.00000   0.14284   0.00000   0.00000  -0.04800
   7        6PY         0.00000   0.00000   0.14284  -0.04800   0.00000
   8        6PZ         0.10744   0.00000   0.00000   0.00000   0.00000
   9        7PX         0.00000   0.36491   0.00000   0.00000  -0.09502
  10        7PY         0.00000   0.00000   0.36491  -0.09502   0.00000
  11        7PZ        -0.13972   0.00000   0.00000   0.00000   0.00000
  12        8PX         0.00000   5.22238   0.00000   0.00000   0.76501
  13        8PY         0.00000   0.00000   5.22238   0.76501   0.00000
  14        8PZ        -2.89622   0.00000   0.00000   0.00000   0.00000
  15        9PX         0.00000   2.11691   0.00000   0.00000  -0.28431
  16        9PY         0.00000   0.00000   2.11691  -0.28431   0.00000
  17        9PZ        -0.43439   0.00000   0.00000   0.00000   0.00000
  18       10D 0        0.02490   0.00000   0.00000   0.00000   0.00000
  19       10D+1        0.00000   0.01067   0.00000   0.00000   0.03080
  20       10D-1        0.00000   0.00000   0.01067   0.03080   0.00000
  21       10D+2       -0.00000   0.00000   0.00000   0.00000   0.00000
  22       10D-2        0.00000   0.00000   0.00000   0.00000   0.00000
  23       11D 0        0.16609   0.00000   0.00000   0.00000   0.00000
  24       11D+1        0.00000  -0.31465   0.00000   0.00000  -0.03105
  25       11D-1        0.00000   0.00000  -0.31465  -0.03105   0.00000
  26       11D+2        0.00000   0.00000   0.00000   0.00000   0.00000
  27       11D-2        0.00000   0.00000   0.00000   0.00000   0.00000
  28       12D 0        1.57874   0.00000   0.00000   0.00000   0.00000
  29       12D+1        0.00000  -3.21222   0.00000   0.00000   1.02844
  30       12D-1        0.00000   0.00000  -3.21222   1.02844   0.00000
  31       12D+2        0.00000   0.00000   0.00000   0.00000   0.00000
  32       12D-2        0.00000   0.00000   0.00000   0.00000   0.00000
  33       13F 0        0.00158   0.00000   0.00000   0.00000   0.00000
  34       13F+1        0.00000  -0.01288   0.00000   0.00000   0.01036
  35       13F-1        0.00000   0.00000  -0.01288   0.01036   0.00000
  36       13F+2        0.00000   0.00000   0.00000   0.00000   0.00000
  37       13F-2        0.00000   0.00000   0.00000   0.00000   0.00000
  38       13F+3        0.00000  -0.00000   0.00000   0.00000   0.00000
  39       13F-3        0.00000   0.00000   0.00000  -0.00000   0.00000
  40       14F 0       -0.12302   0.00000   0.00000   0.00000   0.00000
  41       14F+1        0.00000   0.29062   0.00000   0.00000  -0.11485
  42       14F-1        0.00000   0.00000   0.29062  -0.11485   0.00000
  43       14F+2       -0.00000   0.00000   0.00000   0.00000   0.00000
  44       14F-2        0.00000   0.00000   0.00000   0.00000   0.00000
  45       14F+3        0.00000   0.00000   0.00000   0.00000  -0.00000
  46       14F-3        0.00000   0.00000  -0.00000   0.00000   0.00000
  47 2   N  1S         -0.02194   0.00000   0.00000   0.00000   0.00000
  48        2S          0.09551   0.00000   0.00000   0.00000   0.00000
  49        3S          0.02325   0.00000   0.00000   0.00000   0.00000
  50        4S         -7.20118   0.00000   0.00000   0.00000   0.00000
  51        5S         -1.73056   0.00000   0.00000   0.00000   0.00000
  52        6PX         0.00000  -0.14284   0.00000   0.00000  -0.04800
  53        6PY         0.00000   0.00000  -0.14284  -0.04800   0.00000
  54        6PZ         0.10744   0.00000   0.00000   0.00000   0.00000
  55        7PX         0.00000  -0.36491   0.00000   0.00000  -0.09502
  56        7PY         0.00000   0.00000  -0.36491  -0.09502   0.00000
  57        7PZ        -0.13972   0.00000   0.00000   0.00000   0.00000
  58        8PX         0.00000  -5.22238   0.00000   0.00000   0.76501
  59        8PY         0.00000   0.00000  -5.22238   0.76501   0.00000
  60        8PZ        -2.89622   0.00000   0.00000   0.00000   0.00000
  61        9PX         0.00000  -2.11691   0.00000   0.00000  -0.28431
  62        9PY         0.00000   0.00000  -2.11691  -0.28431   0.00000
  63        9PZ        -0.43439   0.00000   0.00000   0.00000   0.00000
  64       10D 0       -0.02490   0.00000   0.00000   0.00000   0.00000
  65       10D+1        0.00000   0.01067   0.00000   0.00000  -0.03080
  66       10D-1        0.00000   0.00000   0.01067  -0.03080   0.00000
  67       10D+2        0.00000   0.00000   0.00000   0.00000   0.00000
  68       10D-2        0.00000   0.00000   0.00000   0.00000   0.00000
  69       11D 0       -0.16609   0.00000   0.00000   0.00000   0.00000
  70       11D+1        0.00000  -0.31465   0.00000   0.00000   0.03105
  71       11D-1        0.00000   0.00000  -0.31465   0.03105   0.00000
  72       11D+2       -0.00000   0.00000   0.00000   0.00000   0.00000
  73       11D-2        0.00000   0.00000   0.00000   0.00000   0.00000
  74       12D 0       -1.57874   0.00000   0.00000   0.00000   0.00000
  75       12D+1        0.00000  -3.21222   0.00000   0.00000  -1.02844
  76       12D-1        0.00000   0.00000  -3.21222  -1.02844   0.00000
  77       12D+2       -0.00000   0.00000   0.00000   0.00000   0.00000
  78       12D-2        0.00000   0.00000   0.00000   0.00000   0.00000
  79       13F 0        0.00158   0.00000   0.00000   0.00000   0.00000
  80       13F+1        0.00000   0.01288   0.00000   0.00000   0.01036
  81       13F-1        0.00000   0.00000   0.01288   0.01036   0.00000
  82       13F+2        0.00000   0.00000   0.00000   0.00000   0.00000
  83       13F-2        0.00000   0.00000   0.00000   0.00000   0.00000
  84       13F+3        0.00000   0.00000   0.00000   0.00000   0.00000
  85       13F-3        0.00000   0.00000  -0.00000  -0.00000   0.00000
  86       14F 0       -0.12302   0.00000   0.00000   0.00000   0.00000
  87       14F+1        0.00000  -0.29062   0.00000   0.00000  -0.11485
  88       14F-1        0.00000   0.00000  -0.29062  -0.11485   0.00000
  89       14F+2       -0.00000   0.00000   0.00000   0.00000   0.00000
  90       14F-2        0.00000   0.00000   0.00000   0.00000   0.00000
  91       14F+3        0.00000  -0.00000   0.00000   0.00000  -0.00000
  92       14F-3        0.00000   0.00000   0.00000   0.00000   0.00000
                          26        27        28        29        30
                       (DLTU)--  (DLTU)--  (PIU)--V  (PIU)--V  (SGG)--V
     Eigenvalues --     0.56439   0.56439   0.64128   0.64128   0.68725
   1 1   N  1S         -0.00000   0.00000   0.00000   0.00000   0.08261
   2        2S          0.00000   0.00000   0.00000   0.00000  -0.09391
   3        3S          0.00000   0.00000   0.00000   0.00000   0.05677
   4        4S          0.00000   0.00000   0.00000   0.00000   2.00214
   5        5S          0.00000   0.00000   0.00000   0.00000  -1.02152
   6        6PX         0.00000   0.00000   0.00000  -0.16438   0.00000
   7        6PY         0.00000   0.00000  -0.16438   0.00000   0.00000
   8        6PZ        -0.00000   0.00000   0.00000   0.00000  -0.14463
   9        7PX         0.00000   0.00000   0.00000  -0.53019   0.00000
  10        7PY         0.00000   0.00000  -0.53019   0.00000   0.00000
  11        7PZ        -0.00000   0.00000   0.00000   0.00000  -0.55460
  12        8PX         0.00000   0.00000   0.00000   0.68831   0.00000
  13        8PY         0.00000   0.00000   0.68831   0.00000   0.00000
  14        8PZ        -0.00000   0.00000   0.00000   0.00000   2.42661
  15        9PX         0.00000   0.00000   0.00000  -0.29271   0.00000
  16        9PY         0.00000   0.00000  -0.29271   0.00000   0.00000
  17        9PZ        -0.00000   0.00000   0.00000   0.00000   0.12011
  18       10D 0       -0.00000   0.00000   0.00000   0.00000   0.04164
  19       10D+1        0.00000   0.00000   0.00000   0.00293   0.00000
  20       10D-1        0.00000   0.00000   0.00293   0.00000   0.00000
  21       10D+2        0.01661   0.00000   0.00000   0.00000  -0.00000
  22       10D-2        0.00000   0.01661   0.00000   0.00000   0.00000
  23       11D 0        0.00000   0.00000   0.00000   0.00000  -0.27515
  24       11D+1        0.00000   0.00000   0.00000   0.06854   0.00000
  25       11D-1        0.00000   0.00000   0.06854   0.00000   0.00000
  26       11D+2        0.00780   0.00000   0.00000   0.00000   0.00000
  27       11D-2        0.00000   0.00780   0.00000   0.00000   0.00000
  28       12D 0        0.00000   0.00000   0.00000   0.00000  -0.89992
  29       12D+1        0.00000   0.00000   0.00000  -0.44694   0.00000
  30       12D-1        0.00000   0.00000  -0.44694   0.00000   0.00000
  31       12D+2        1.53786   0.00000   0.00000   0.00000  -0.00000
  32       12D-2        0.00000   1.53786   0.00000   0.00000   0.00000
  33       13F 0       -0.00000   0.00000   0.00000   0.00000   0.00589
  34       13F+1        0.00000   0.00000   0.00000  -0.00311   0.00000
  35       13F-1        0.00000   0.00000  -0.00311   0.00000   0.00000
  36       13F+2        0.02314   0.00000   0.00000   0.00000  -0.00000
  37       13F-2        0.00000   0.02314   0.00000   0.00000   0.00000
  38       13F+3        0.00000   0.00000   0.00000   0.00000   0.00000
  39       13F-3        0.00000   0.00000  -0.00000   0.00000   0.00000
  40       14F 0       -0.00000   0.00000   0.00000   0.00000   0.21032
  41       14F+1        0.00000   0.00000   0.00000   0.02187   0.00000
  42       14F-1        0.00000   0.00000   0.02187   0.00000   0.00000
  43       14F+2       -0.17767   0.00000   0.00000   0.00000  -0.00000
  44       14F-2        0.00000  -0.17767   0.00000   0.00000   0.00000
  45       14F+3        0.00000   0.00000   0.00000   0.00000   0.00000
  46       14F-3        0.00000   0.00000  -0.00000   0.00000   0.00000
  47 2   N  1S          0.00000   0.00000   0.00000   0.00000   0.08261
  48        2S         -0.00000   0.00000   0.00000   0.00000  -0.09391
  49        3S         -0.00000   0.00000   0.00000   0.00000   0.05677
  50        4S         -0.00000   0.00000   0.00000   0.00000   2.00214
  51        5S         -0.00000   0.00000   0.00000   0.00000  -1.02152
  52        6PX         0.00000   0.00000   0.00000  -0.16438   0.00000
  53        6PY         0.00000   0.00000  -0.16438   0.00000   0.00000
  54        6PZ        -0.00000   0.00000   0.00000   0.00000   0.14463
  55        7PX         0.00000   0.00000   0.00000  -0.53019   0.00000
  56        7PY         0.00000   0.00000  -0.53019   0.00000   0.00000
  57        7PZ        -0.00000   0.00000   0.00000   0.00000   0.55460
  58        8PX         0.00000   0.00000   0.00000   0.68831   0.00000
  59        8PY         0.00000   0.00000   0.68831   0.00000   0.00000
  60        8PZ        -0.00000   0.00000   0.00000   0.00000  -2.42661
  61        9PX         0.00000   0.00000   0.00000  -0.29271   0.00000
  62        9PY         0.00000   0.00000  -0.29271   0.00000   0.00000
  63        9PZ        -0.00000   0.00000   0.00000   0.00000  -0.12011
  64       10D 0        0.00000   0.00000   0.00000   0.00000   0.04164
  65       10D+1        0.00000   0.00000   0.00000  -0.00293   0.00000
  66       10D-1        0.00000   0.00000  -0.00293   0.00000   0.00000
  67       10D+2       -0.01661   0.00000   0.00000   0.00000  -0.00000
  68       10D-2        0.00000  -0.01661   0.00000   0.00000   0.00000
  69       11D 0       -0.00000   0.00000   0.00000   0.00000  -0.27515
  70       11D+1        0.00000   0.00000   0.00000  -0.06854   0.00000
  71       11D-1        0.00000   0.00000  -0.06854   0.00000   0.00000
  72       11D+2       -0.00780   0.00000   0.00000   0.00000   0.00000
  73       11D-2        0.00000  -0.00780   0.00000   0.00000   0.00000
  74       12D 0       -0.00000   0.00000   0.00000   0.00000  -0.89992
  75       12D+1        0.00000   0.00000   0.00000   0.44694   0.00000
  76       12D-1        0.00000   0.00000   0.44694   0.00000   0.00000
  77       12D+2       -1.53786   0.00000   0.00000   0.00000  -0.00000
  78       12D-2        0.00000  -1.53786   0.00000   0.00000   0.00000
  79       13F 0       -0.00000   0.00000   0.00000   0.00000  -0.00589
  80       13F+1        0.00000   0.00000   0.00000  -0.00311   0.00000
  81       13F-1        0.00000   0.00000  -0.00311   0.00000   0.00000
  82       13F+2        0.02314   0.00000   0.00000   0.00000   0.00000
  83       13F-2        0.00000   0.02314   0.00000   0.00000   0.00000
  84       13F+3        0.00000   0.00000   0.00000   0.00000   0.00000
  85       13F-3        0.00000   0.00000  -0.00000   0.00000   0.00000
  86       14F 0       -0.00000   0.00000   0.00000   0.00000  -0.21032
  87       14F+1        0.00000   0.00000   0.00000   0.02187   0.00000
  88       14F-1        0.00000   0.00000   0.02187   0.00000   0.00000
  89       14F+2       -0.17767   0.00000   0.00000   0.00000   0.00000
  90       14F-2        0.00000  -0.17767   0.00000   0.00000   0.00000
  91       14F+3        0.00000   0.00000   0.00000   0.00000   0.00000
  92       14F-3        0.00000   0.00000  -0.00000   0.00000   0.00000
                          31        32        33        34        35
                       (SGU)--V  (SGU)--V  (PIG)--V  (PIG)--V  (SGG)--V
     Eigenvalues --     0.69260   0.91841   0.97014   0.97014   1.12112
   1 1   N  1S         -0.09162   0.04693   0.00000   0.00000  -0.02375
   2        2S          0.29968  -0.03680   0.00000   0.00000   0.57962
   3        3S          0.06004  -0.05201   0.00000   0.00000   0.14190
   4        4S         25.58626   4.49748   0.00000   0.00000   0.86245
   5        5S         22.80935   7.99169   0.00000   0.00000  -0.46647
   6        6PX         0.00000   0.00000  -0.20593   0.00000   0.00000
   7        6PY         0.00000   0.00000   0.00000  -0.20593   0.00000
   8        6PZ        -0.02578   0.34701   0.00000   0.00000  -0.05675
   9        7PX         0.00000   0.00000  -0.17552   0.00000   0.00000
  10        7PY         0.00000   0.00000   0.00000  -0.17552   0.00000
  11        7PZ        -0.82036   0.36537   0.00000   0.00000  -0.16508
  12        8PX         0.00000   0.00000   9.37178   0.00000   0.00000
  13        8PY         0.00000   0.00000   0.00000   9.37178   0.00000
  14        8PZ       -13.77161  -3.35458   0.00000   0.00000   1.74554
  15        9PX         0.00000   0.00000   0.86162   0.00000   0.00000
  16        9PY         0.00000   0.00000   0.00000   0.86162   0.00000
  17        9PZ        -4.23550  -1.40981   0.00000   0.00000   0.88671
  18       10D 0       -0.01597   0.03334   0.00000   0.00000   0.01658
  19       10D+1        0.00000   0.00000   0.04019   0.00000   0.00000
  20       10D-1        0.00000   0.00000   0.00000   0.04019   0.00000
  21       10D+2       -0.00000  -0.00000   0.00000   0.00000  -0.00000
  22       10D-2        0.00000   0.00000   0.00000   0.00000   0.00000
  23       11D 0        0.51685   0.46151   0.00000   0.00000   0.34561
  24       11D+1        0.00000   0.00000  -0.84754   0.00000   0.00000
  25       11D-1        0.00000   0.00000   0.00000  -0.84754   0.00000
  26       11D+2        0.00000   0.00000   0.00000   0.00000   0.00000
  27       11D-2        0.00000   0.00000   0.00000   0.00000   0.00000
  28       12D 0        2.67528  -0.04320   0.00000   0.00000  -1.49613
  29       12D+1        0.00000   0.00000  -3.90672   0.00000   0.00000
  30       12D-1        0.00000   0.00000   0.00000  -3.90672   0.00000
  31       12D+2       -0.00000   0.00000   0.00000   0.00000  -0.00000
  32       12D-2        0.00000   0.00000   0.00000   0.00000   0.00000
  33       13F 0       -0.03204  -0.04415   0.00000   0.00000   0.00453
  34       13F+1        0.00000   0.00000   0.03311   0.00000   0.00000
  35       13F-1        0.00000   0.00000   0.00000   0.03311   0.00000
  36       13F+2        0.00000   0.00000   0.00000   0.00000  -0.00000
  37       13F-2        0.00000   0.00000   0.00000   0.00000   0.00000
  38       13F+3        0.00000   0.00000   0.00000   0.00000   0.00000
  39       13F-3        0.00000   0.00000   0.00000  -0.00000   0.00000
  40       14F 0       -0.10226   0.13244   0.00000   0.00000  -0.19066
  41       14F+1        0.00000   0.00000   0.47584   0.00000   0.00000
  42       14F-1        0.00000   0.00000   0.00000   0.47584   0.00000
  43       14F+2       -0.00000  -0.00000   0.00000   0.00000   0.00000
  44       14F-2        0.00000   0.00000   0.00000   0.00000   0.00000
  45       14F+3        0.00000   0.00000   0.00000   0.00000   0.00000
  46       14F-3        0.00000   0.00000   0.00000  -0.00000   0.00000
  47 2   N  1S          0.09162  -0.04693   0.00000   0.00000  -0.02375
  48        2S         -0.29968   0.03680   0.00000   0.00000   0.57962
  49        3S         -0.06004   0.05201   0.00000   0.00000   0.14190
  50        4S        -25.58626  -4.49748   0.00000   0.00000   0.86245
  51        5S        -22.80935  -7.99169   0.00000   0.00000  -0.46647
  52        6PX         0.00000   0.00000   0.20593   0.00000   0.00000
  53        6PY         0.00000   0.00000   0.00000   0.20593   0.00000
  54        6PZ        -0.02578   0.34701   0.00000   0.00000   0.05675
  55        7PX         0.00000   0.00000   0.17552   0.00000   0.00000
  56        7PY         0.00000   0.00000   0.00000   0.17552   0.00000
  57        7PZ        -0.82036   0.36537   0.00000   0.00000   0.16508
  58        8PX         0.00000   0.00000  -9.37178   0.00000   0.00000
  59        8PY         0.00000   0.00000   0.00000  -9.37178   0.00000
  60        8PZ       -13.77161  -3.35458   0.00000   0.00000  -1.74554
  61        9PX         0.00000   0.00000  -0.86162   0.00000   0.00000
  62        9PY         0.00000   0.00000   0.00000  -0.86162   0.00000
  63        9PZ        -4.23550  -1.40981   0.00000   0.00000  -0.88671
  64       10D 0        0.01597  -0.03334   0.00000   0.00000   0.01658
  65       10D+1        0.00000   0.00000   0.04019   0.00000   0.00000
  66       10D-1        0.00000   0.00000   0.00000   0.04019   0.00000
  67       10D+2        0.00000   0.00000   0.00000   0.00000  -0.00000
  68       10D-2        0.00000   0.00000   0.00000   0.00000   0.00000
  69       11D 0       -0.51685  -0.46151   0.00000   0.00000   0.34561
  70       11D+1        0.00000   0.00000  -0.84754   0.00000   0.00000
  71       11D-1        0.00000   0.00000   0.00000  -0.84754   0.00000
  72       11D+2       -0.00000  -0.00000   0.00000   0.00000   0.00000
  73       11D-2        0.00000   0.00000   0.00000   0.00000   0.00000
  74       12D 0       -2.67528   0.04320   0.00000   0.00000  -1.49613
  75       12D+1        0.00000   0.00000  -3.90672   0.00000   0.00000
  76       12D-1        0.00000   0.00000   0.00000  -3.90672   0.00000
  77       12D+2        0.00000  -0.00000   0.00000   0.00000  -0.00000
  78       12D-2        0.00000   0.00000   0.00000   0.00000   0.00000
  79       13F 0       -0.03204  -0.04415   0.00000   0.00000  -0.00453
  80       13F+1        0.00000   0.00000  -0.03311   0.00000   0.00000
  81       13F-1        0.00000   0.00000   0.00000  -0.03311   0.00000
  82       13F+2        0.00000   0.00000   0.00000   0.00000   0.00000
  83       13F-2        0.00000   0.00000   0.00000   0.00000   0.00000
  84       13F+3        0.00000   0.00000  -0.00000   0.00000   0.00000
  85       13F-3        0.00000   0.00000   0.00000   0.00000   0.00000
  86       14F 0       -0.10226   0.13244   0.00000   0.00000   0.19066
  87       14F+1        0.00000   0.00000  -0.47584   0.00000   0.00000
  88       14F-1        0.00000   0.00000   0.00000  -0.47584   0.00000
  89       14F+2       -0.00000  -0.00000   0.00000   0.00000  -0.00000
  90       14F-2        0.00000   0.00000   0.00000   0.00000   0.00000
  91       14F+3        0.00000   0.00000  -0.00000   0.00000   0.00000
  92       14F-3        0.00000   0.00000   0.00000   0.00000   0.00000
                          36        37        38        39        40
                       (DLTG)--  (DLTG)--  (PHIU)--  (PHIU)--  (PIU)--V
     Eigenvalues --     1.21360   1.21360   1.26481   1.26481   1.33449
   1 1   N  1S          0.00000   0.00000   0.00000   0.00000   0.00000
   2        2S          0.00000   0.00000   0.00000   0.00000   0.00000
   3        3S          0.00000   0.00000   0.00000   0.00000   0.00000
   4        4S          0.00000  -0.00000   0.00000   0.00000   0.00000
   5        5S          0.00000   0.00000   0.00000   0.00000   0.00000
   6        6PX         0.00000   0.00000   0.00000   0.00000  -0.07346
   7        6PY         0.00000   0.00000  -0.00000   0.00000   0.00000
   8        6PZ         0.00000   0.00000   0.00000   0.00000   0.00000
   9        7PX         0.00000   0.00000   0.00000  -0.00000   0.02838
  10        7PY         0.00000   0.00000   0.00000   0.00000   0.00000
  11        7PZ         0.00000   0.00000   0.00000   0.00000   0.00000
  12        8PX         0.00000   0.00000   0.00000  -0.00000   0.29315
  13        8PY         0.00000   0.00000   0.00000   0.00000   0.00000
  14        8PZ         0.00000  -0.00000   0.00000   0.00000   0.00000
  15        9PX         0.00000   0.00000   0.00000   0.00000  -0.08744
  16        9PY         0.00000   0.00000  -0.00000   0.00000   0.00000
  17        9PZ         0.00000  -0.00000   0.00000   0.00000   0.00000
  18       10D 0        0.00000  -0.00000   0.00000   0.00000   0.00000
  19       10D+1        0.00000   0.00000   0.00000   0.00000  -0.03103
  20       10D-1        0.00000   0.00000  -0.00000   0.00000   0.00000
  21       10D+2        0.00000   0.01440   0.00000   0.00000   0.00000
  22       10D-2        0.01440   0.00000   0.00000   0.00000   0.00000
  23       11D 0        0.00000   0.00000   0.00000   0.00000   0.00000
  24       11D+1        0.00000   0.00000   0.00000   0.00000  -0.69842
  25       11D-1        0.00000   0.00000  -0.00000   0.00000   0.00000
  26       11D+2        0.00000   0.66105   0.00000   0.00000   0.00000
  27       11D-2        0.66105   0.00000   0.00000   0.00000   0.00000
  28       12D 0        0.00000   0.00000   0.00000   0.00000   0.00000
  29       12D+1        0.00000   0.00000   0.00000  -0.00000   0.86506
  30       12D-1        0.00000   0.00000   0.00000   0.00000   0.00000
  31       12D+2        0.00000  -0.39865   0.00000   0.00000   0.00000
  32       12D-2       -0.39865   0.00000   0.00000   0.00000   0.00000
  33       13F 0        0.00000  -0.00000   0.00000   0.00000   0.00000
  34       13F+1        0.00000   0.00000   0.00000  -0.00000   0.03400
  35       13F-1        0.00000   0.00000   0.00000   0.00000   0.00000
  36       13F+2        0.00000   0.01169   0.00000   0.00000   0.00000
  37       13F-2        0.01169   0.00000   0.00000   0.00000   0.00000
  38       13F+3        0.00000   0.00000   0.00000  -0.06352  -0.00000
  39       13F-3        0.00000   0.00000  -0.06352   0.00000   0.00000
  40       14F 0        0.00000   0.00000   0.00000   0.00000   0.00000
  41       14F+1        0.00000   0.00000   0.00000   0.00000  -0.48429
  42       14F-1        0.00000   0.00000  -0.00000   0.00000   0.00000
  43       14F+2        0.00000  -0.17276   0.00000   0.00000   0.00000
  44       14F-2       -0.17276   0.00000   0.00000   0.00000   0.00000
  45       14F+3        0.00000   0.00000   0.00000   0.61308   0.00000
  46       14F-3        0.00000   0.00000   0.61308   0.00000   0.00000
  47 2   N  1S          0.00000   0.00000   0.00000   0.00000   0.00000
  48        2S          0.00000   0.00000   0.00000   0.00000   0.00000
  49        3S          0.00000   0.00000   0.00000   0.00000   0.00000
  50        4S          0.00000  -0.00000   0.00000   0.00000   0.00000
  51        5S          0.00000   0.00000   0.00000   0.00000   0.00000
  52        6PX         0.00000   0.00000   0.00000   0.00000  -0.07346
  53        6PY         0.00000   0.00000  -0.00000   0.00000   0.00000
  54        6PZ         0.00000  -0.00000   0.00000   0.00000   0.00000
  55        7PX         0.00000   0.00000   0.00000  -0.00000   0.02838
  56        7PY         0.00000   0.00000   0.00000   0.00000   0.00000
  57        7PZ         0.00000  -0.00000   0.00000   0.00000   0.00000
  58        8PX         0.00000   0.00000   0.00000  -0.00000   0.29315
  59        8PY         0.00000   0.00000   0.00000   0.00000   0.00000
  60        8PZ         0.00000   0.00000   0.00000   0.00000   0.00000
  61        9PX         0.00000   0.00000   0.00000   0.00000  -0.08744
  62        9PY         0.00000   0.00000  -0.00000   0.00000   0.00000
  63        9PZ         0.00000   0.00000   0.00000   0.00000   0.00000
  64       10D 0        0.00000  -0.00000   0.00000   0.00000   0.00000
  65       10D+1        0.00000   0.00000   0.00000  -0.00000   0.03103
  66       10D-1        0.00000   0.00000   0.00000   0.00000   0.00000
  67       10D+2        0.00000   0.01440   0.00000   0.00000   0.00000
  68       10D-2        0.01440   0.00000   0.00000   0.00000   0.00000
  69       11D 0        0.00000   0.00000   0.00000   0.00000   0.00000
  70       11D+1        0.00000   0.00000   0.00000  -0.00000   0.69842
  71       11D-1        0.00000   0.00000   0.00000   0.00000   0.00000
  72       11D+2        0.00000   0.66105   0.00000   0.00000   0.00000
  73       11D-2        0.66105   0.00000   0.00000   0.00000   0.00000
  74       12D 0        0.00000   0.00000   0.00000   0.00000   0.00000
  75       12D+1        0.00000   0.00000   0.00000   0.00000  -0.86506
  76       12D-1        0.00000   0.00000  -0.00000   0.00000   0.00000
  77       12D+2        0.00000  -0.39865   0.00000   0.00000   0.00000
  78       12D-2       -0.39865   0.00000   0.00000   0.00000   0.00000
  79       13F 0        0.00000   0.00000   0.00000   0.00000   0.00000
  80       13F+1        0.00000   0.00000   0.00000  -0.00000   0.03400
  81       13F-1        0.00000   0.00000   0.00000   0.00000   0.00000
  82       13F+2        0.00000  -0.01169   0.00000   0.00000   0.00000
  83       13F-2       -0.01169   0.00000   0.00000   0.00000   0.00000
  84       13F+3        0.00000   0.00000   0.00000  -0.06352  -0.00000
  85       13F-3        0.00000   0.00000  -0.06352   0.00000   0.00000
  86       14F 0        0.00000  -0.00000   0.00000   0.00000   0.00000
  87       14F+1        0.00000   0.00000   0.00000   0.00000  -0.48429
  88       14F-1        0.00000   0.00000  -0.00000   0.00000   0.00000
  89       14F+2        0.00000   0.17276   0.00000   0.00000   0.00000
  90       14F-2        0.17276   0.00000   0.00000   0.00000   0.00000
  91       14F+3        0.00000   0.00000   0.00000   0.61308   0.00000
  92       14F-3        0.00000   0.00000   0.61308   0.00000   0.00000
                          41        42        43        44        45
                       (PIU)--V  (DLTU)--  (DLTU)--  (SGU)--V  (SGG)--V
     Eigenvalues --     1.33449   1.44184   1.44184   1.48577   1.56622
   1 1   N  1S          0.00000   0.00000   0.00000   0.10530  -0.01591
   2        2S          0.00000  -0.00000   0.00000  -0.47096  -0.22790
   3        3S          0.00000  -0.00000   0.00000  -0.26839  -0.14449
   4        4S          0.00000   0.00000   0.00000  38.77857  -0.47572
   5        5S          0.00000   0.00000   0.00000  13.96836   0.24496
   6        6PX         0.00000   0.00000   0.00000   0.00000   0.00000
   7        6PY        -0.07346   0.00000   0.00000   0.00000   0.00000
   8        6PZ         0.00000   0.00000   0.00000   0.16718   0.01345
   9        7PX         0.00000   0.00000   0.00000   0.00000   0.00000
  10        7PY         0.02838   0.00000   0.00000   0.00000   0.00000
  11        7PZ         0.00000  -0.00000   0.00000  -1.93220  -0.15112
  12        8PX         0.00000   0.00000   0.00000   0.00000   0.00000
  13        8PY         0.29315   0.00000   0.00000   0.00000   0.00000
  14        8PZ         0.00000  -0.00000   0.00000 -17.97883  -0.63742
  15        9PX         0.00000   0.00000   0.00000   0.00000   0.00000
  16        9PY        -0.08744   0.00000   0.00000   0.00000   0.00000
  17        9PZ         0.00000  -0.00000   0.00000  -2.50205  -0.55181
  18       10D 0        0.00000   0.00000   0.00000   0.04360  -0.00864
  19       10D+1        0.00000   0.00000   0.00000   0.00000   0.00000
  20       10D-1       -0.03103   0.00000   0.00000   0.00000   0.00000
  21       10D+2        0.00000  -0.03095   0.00000   0.00000  -0.00000
  22       10D-2        0.00000   0.00000  -0.03095   0.00000   0.00000
  23       11D 0        0.00000   0.00000   0.00000   1.24256  -0.55337
  24       11D+1        0.00000   0.00000   0.00000   0.00000   0.00000
  25       11D-1       -0.69842   0.00000   0.00000   0.00000   0.00000
  26       11D+2        0.00000  -0.33930   0.00000   0.00000   0.00000
  27       11D-2        0.00000   0.00000  -0.33930   0.00000   0.00000
  28       12D 0        0.00000   0.00000   0.00000   3.41974   0.76447
  29       12D+1        0.00000   0.00000   0.00000   0.00000   0.00000
[...]
   XX=              0.4829   YY=              0.4829   ZZ=             -0.9659
   XY=              0.0000   XZ=              0.0000   YZ=              0.0000
 Octapole moment (field-independent basis, Debye-Ang**2):
  XXX=             -0.0000  YYY=              0.0000  ZZZ=             -0.0000  XYY=             -0.0000
  XXY=             -0.0000  XXZ=              0.0000  XZZ=             -0.0000  YZZ=              0.0000
  YYZ=              0.0000  XYZ=              0.0000
 Hexadecapole moment (field-independent basis, Debye-Ang**3):
 XXXX=             -8.8942 YYYY=             -8.8942 ZZZZ=            -31.3183 XXXY=              0.0000
 XXXZ=              0.0000 YYYX=              0.0000 YYYZ=              0.0000 ZZZX=              0.0000
 ZZZY=             -0.0000 XXYY=             -2.9647 XXZZ=             -6.2795 YYZZ=             -6.2795
 XXYZ=              0.0000 YYXZ=              0.0000 ZZXY=              0.0000
 N-N= 2.382843190518D+01 E-N=-3.039504554696D+02  KE= 1.089772420452D+02
 Symmetry AG   KE= 5.332828539614D+01
 Symmetry B1G  KE= 5.446282419764D-34
 Symmetry B2G  KE= 7.846050962257D-19
 Symmetry B3G  KE=-3.268816423133D-18
 Symmetry AU   KE= 2.716169000763D-32
 Symmetry B1U  KE= 4.875195741256D+01
 Symmetry B2U  KE= 3.448499618251D+00
 Symmetry B3U  KE= 3.448499618251D+00
 There are a total of       45624 grid points.
 ElSum from          density=       13.9999999153
 ElSum from atomic densities=       13.9999999050

 Hirshfeld populations at iteration   1 (CX, CA, CB, DipXYZ):
               1          2          3          4          5          6
     1  N    0.000004   3.500000   3.500000   0.000000  -0.000000  -0.044036
     2  N    0.000004   3.500000   3.500000   0.000000  -0.000000   0.044036
       Tot   0.000008   7.000000   7.000000   0.000000  -0.000000  -0.000000

 Dip from Atomic Chgs              0.000000   0.000000  -0.000000
         Total Dipole              0.000000  -0.000000  -0.000000

 Hirshfeld charges, spin densities, dipoles, and CM5 charges using IRadAn=      5:
              Q-H        S-H        Dx         Dy         Dz        Q-CM5   
     1  N    0.000000   0.000000   0.000000  -0.000000  -0.044036   0.000000
     2  N    0.000000   0.000000   0.000000  -0.000000   0.044036   0.000000
       Tot   0.000000   0.000000   0.000000  -0.000000  -0.000000   0.000000
 Hirshfeld charges with hydrogens summed into heavy atoms:
              Q-H       Q-CM5   
     1  N    0.000000   0.000000
     2  N    0.000000   0.000000
 
 EQQ= 0.000000000000E+00 EQD= 0.000000000000E+00 EDD=-0.223007837158E-03
 EQQ+QD+DD=-0.223007837158E-03
 
 Orbital energies and kinetic energies (alpha):
                                 1                 2
   1 (SGG)--O                -14.539621         21.985924
   2 (SGU)--O                -14.537609         22.018475
   3 (SGG)--O                 -1.235098          2.635473
   4 (SGU)--O                 -0.647334          2.357504
   5 (PIU)--O                 -0.559540          1.724250
   6 (PIU)--O                 -0.559540          1.724250
   7 (SGG)--O                 -0.523980          2.042746
   8 (PIG)--V                  0.051861          1.787342
   9 (PIG)--V                  0.051861          1.787342
  10 (SGU)--V                  0.087223          0.129084
  11 (SGG)--V                  0.117350          0.329031
  12 (PIU)--V                  0.125766          0.221689
  13 (PIU)--V                  0.125766          0.221689
  14 (SGG)--V                  0.160613          0.224727
  15 (PIG)--V                  0.174588          0.495112
  16 (PIG)--V                  0.174588          0.495112
  17 (SGU)--V                  0.275745          0.523607
  18 (DLTG)--V                 0.382717          0.511533
  19 (DLTG)--V                 0.382717          0.511534
  20 (SGG)--V                  0.446101          0.750664
  21 (SGU)--V                  0.503569          0.824992
  22 (PIG)--V                  0.541757          1.008737
  23 (PIG)--V                  0.541757          1.008737
  24 (PIU)--V                  0.542202          0.694067
  25 (PIU)--V                  0.542202          0.694067
  26 (DLTU)--V                 0.564558          0.618820
  27 (DLTU)--V                 0.564558          0.618820
  28 (PIU)--V                  0.641194          1.412785
  29 (PIU)--V                  0.641194          1.412785
  30 (SGG)--V                  0.686917          1.658728
  31 (SGU)--V                  0.693885          1.667070
  32 (SGU)--V                  0.923655          3.318380
  33 (PIG)--V                  0.971183          1.694605
  34 (PIG)--V                  0.971183          1.694605
  35 (SGG)--V                  1.121843          1.947179
  36 (DLTG)--V                 1.213444          1.809426
  37 (DLTG)--V                 1.213444          1.809426
  38 (PHIU)--V                 1.264978          1.496148
  39 (PHIU)--V                 1.264978          1.496148
  40 (PIU)--V                  1.335307          2.010249
  41 (PIU)--V                  1.335307          2.010249
  42 (DLTU)--V                 1.441594          1.846256
  43 (DLTU)--V                 1.441594          1.846256
  44 (SGU)--V                  1.486646          2.952715
  45 (SGG)--V                  1.567436          1.962663
  46 (DLTG)--V                 1.585375          1.841543
  47 (DLTG)--V                 1.585375          1.841543
  48 (PIG)--V                  1.601573          1.913552
  49 (PIG)--V                  1.601573          1.913552
  50 (PHIG)--V                 1.619164          1.817434
  51 (PHIG)--V                 1.619164          1.817434
  52 (SGU)--V                  1.849470          2.789101
  53 (PIU)--V                  2.022037          2.560702
  54 (PIU)--V                  2.022037          2.560702
  55 (DLTU)--V                 2.179334          2.624468
  56 (DLTU)--V                 2.179334          2.624468
  57 (PIG)--V                  2.254369          3.657176
  58 (PIG)--V                  2.254369          3.657176
  59 (SGU)--V                  2.566032          4.880136
  60 (SGG)--V                  2.576885          5.188808
  61 (PIU)--V                  2.981260          7.084430
  62 (PIU)--V                  2.981260          7.084430
  63 (SGG)--V                  3.722531          6.648205
  64 (PIG)--V                  3.992998          6.816419
  65 (PIG)--V                  3.992998          6.816419
  66 (DLTG)--V                 4.107813          5.388088
  67 (DLTG)--V                 4.107813          5.388088
  68 (SGU)--V                  4.193705          8.830047
  69 (SGG)--V                  4.229822          6.902789
  70 (PIU)--V                  4.240412          6.141277
  71 (PIU)--V                  4.240412          6.141277
  72 (PHIU)--V                 4.381815          5.421610
  73 (PHIU)--V                 4.381815          5.421610
  74 (DLTG)--V                 4.750309          6.752901
  75 (DLTG)--V                 4.750310          6.752901
  76 (PHIG)--V                 4.767531          5.829410
  77 (PHIG)--V                 4.767531          5.829410
  78 (DLTU)--V                 4.835612          6.709788
  79 (DLTU)--V                 4.835613          6.709788
  80 (SGU)--V                  4.901391          6.295447
  81 (PIG)--V                  5.074952          7.751189
  82 (PIG)--V                  5.074952          7.751189
  83 (PIU)--V                  5.269618          6.915487
  84 (PIU)--V                  5.269618          6.915487
  85 (DLTU)--V                 5.449771          6.857282
  86 (DLTU)--V                 5.449771          6.857281
  87 (SGG)--V                  6.374160         10.635290
  88 (SGU)--V                  6.408718         10.421430
  89 (PIG)--V                  6.567818          8.513288
  90 (PIG)--V                  6.567818          8.513288
  91 (SGG)--V                 10.421308         28.692493
  92 (SGU)--V                 18.931820         46.358400
 Total kinetic energy from orbitals= 1.089772420452D+02
  Exact polarizability:  10.283  -0.000  10.283  -0.000   0.000  14.961
 Approx polarizability:  10.544  -0.000  10.544  -0.000  -0.000  20.076
 No NMR shielding tensors so no spin-rotation constants.
 Leave Link  601 at Fri Sep  6 09:53:36 2024, MaxMem=   104857600 cpu:               0.2 elap:               0.2
 (Enter /Users/asuyarger/Applications/G16/g16/l701.exe)
 ... and contract with generalized density number  0.
 Compute integral second derivatives.
 R6Disp: Adding Grimme-D2 dispersion energy 2nd derivatives to the Hessian.
 Leave Link  701 at Fri Sep  6 09:53:36 2024, MaxMem=   104857600 cpu:               0.1 elap:               0.1
 (Enter /Users/asuyarger/Applications/G16/g16/l702.exe)
 L702 exits ... SP integral derivatives will be done elsewhere.
 Leave Link  702 at Fri Sep  6 09:53:36 2024, MaxMem=   104857600 cpu:               0.0 elap:               0.0
 (Enter /Users/asuyarger/Applications/G16/g16/l703.exe)
 Integral derivatives from FoFJK, PRISM(SPDF).
 Compute integral second derivatives, UseDBF=F ICtDFT=           0.
 Calling FoFJK, ICntrl=    100127 FMM=F ISym2X=1 I1Cent= 0 IOpClX= 0 NMat=1 NMatS=1 NMatT=0.
 FoFJK:  IHMeth= 1 ICntrl=  100127 DoSepK=T KAlg= 0 I1Cent=           0 FoldK=F
 IRaf=         1 NMat=       1 IRICut=       1 DoRegI=T DoRafI=F ISym2E= 1 IDoP0=0 IntGTp=1.
 FoFCou: FMM=F IPFlag=           0 FMFlag=      100000 FMFlg1=         800
         NFxFlg=           0 DoJE=F BraDBF=F KetDBF=F FulRan=T
         wScrn=  0.000000 ICntrl=    100527 IOpCl=  0 I1Cent=           0 NGrid=           0
         NMat0=    1 NMatS0=      1 NMatT0=    0 NMatD0=    1 NMtDS0=    0 NMtDT0=    0
 Petite list used in FoFCou.
 Leave Link  703 at Fri Sep  6 09:53:41 2024, MaxMem=   104857600 cpu:               4.8 elap:               4.8
 (Enter /Users/asuyarger/Applications/G16/g16/l716.exe)
 Dipole        =-8.87468518D-31 1.44440044D-33 4.44089190D-16
 Polarizability= 1.02827873D+01-1.84315236D-18 1.02827873D+01
                -5.57393996D-16 5.95550935D-31 1.49606581D+01
 HyperPolar    = 7.82463558D-11-8.75191600D-16 4.15575338D-11
                -5.02182309D-12 1.21143695D-11 3.77821138D-12
                -1.82961237D-12 3.97852559D-11 2.50631595D-11
                 3.35375165D-12
 Full mass-weighted force constant matrix:
 Low frequencies ---   -0.0017   -0.0007    0.0006   14.6022   14.6022 2489.6987
 Diagonal vibrational polarizability:
        0.0000000       0.0000000       0.0000000
 Diagonal vibrational hyperpolarizability:
       -0.0000000      -0.0000000      -0.0000000
 Harmonic frequencies (cm**-1), IR intensities (KM/Mole), Raman scattering
 activities (A**4/AMU), depolarization ratios for plane and unpolarized
 incident light, reduced masses (AMU), force constants (mDyne/A),
 and normal coordinates:
                      1
                     SGG
 Frequencies --   2489.6987
 Red. masses --     14.0031
 Frc consts  --     51.1408
 IR Inten    --      0.0000
 Raman Activ --     24.3372
 Depolar (P) --      0.0847
 Depolar (U) --      0.1562
  Atom  AN      X      Y      Z
     1   7    -0.00   0.00   0.71
     2   7     0.00   0.00  -0.71

 -------------------
 - Thermochemistry -
 -------------------
 Temperature   298.150 Kelvin.  Pressure   1.00000 Atm.
 Atom     1 has atomic number  7 and mass  14.00307
 Atom     2 has atomic number  7 and mass  14.00307
 Molecular mass:    28.00615 amu.
 Principal axes and moments of inertia in atomic units:
                           1         2         3
     Eigenvalues --     0.00000  29.60701  29.60701
           X           -0.00000   1.00000  -0.00000
           Y            0.00000   0.00000   1.00000
           Z            1.00000   0.00000  -0.00000
 This molecule is a prolate symmetric top.
 Rotational symmetry number  2.
 Rotational temperature (Kelvin)      2.92545
 Rotational constant (GHZ):          60.956544
 Zero-point vibrational energy      14891.7 (Joules/Mol)
                                    3.55920 (Kcal/Mol)
 Vibrational temperatures:   3582.12
          (Kelvin)
 
 Zero-point correction=                           0.005672 (Hartree/Particle)
 Thermal correction to Energy=                    0.008032
 Thermal correction to Enthalpy=                  0.008977
 Thermal correction to Gibbs Free Energy=        -0.012748
 Sum of electronic and zero-point Energies=           -109.523978
 Sum of electronic and thermal Energies=              -109.521618
 Sum of electronic and thermal Enthalpies=            -109.520673
 Sum of electronic and thermal Free Energies=         -109.542398
 
                     E (Thermal)             CV                S
                      KCal/Mol        Cal/Mol-Kelvin    Cal/Mol-Kelvin
 Total                    5.040              4.970             45.723
 Electronic               0.000              0.000              0.000
 Translational            0.889              2.981             35.924
 Rotational               0.592              1.987              9.799
 Vibrational              3.559              0.002              0.000
                       Q            Log10(Q)             Ln(Q)
 Total Bot       0.730524D+06          5.863634         13.501517
 Total V=0       0.296858D+09          8.472548         19.508763
 Vib (Bot)       0.246087D-02         -2.608911         -6.007240
 Vib (V=0)       0.100001D+01          0.000003          0.000006
 Electronic      0.100000D+01          0.000000          0.000000
 Translational   0.582551D+07          6.765334         15.577757
 Rotational      0.509579D+02          1.707212          3.931000
 ***** Axes restored to original set *****
 -------------------------------------------------------------------
 Center     Atomic                   Forces (Hartrees/Bohr)
 Number     Number              X              Y              Z
 -------------------------------------------------------------------
      1        7           0.000000021    0.000000000   -0.000000000
      2        7          -0.000000021   -0.000000000    0.000000000
 -------------------------------------------------------------------
 Cartesian Forces:  Max     0.000000021 RMS     0.000000012
 Force constants in Cartesian coordinates: 
                1             2             3             4             5 
      1  0.164240D+01
      2  0.000000D+00  0.564963D-04
      3  0.000000D+00  0.000000D+00  0.564963D-04
      4 -0.164240D+01  0.000000D+00  0.000000D+00  0.164240D+01
      5  0.000000D+00 -0.564963D-04  0.000000D+00  0.000000D+00  0.564963D-04
      6  0.000000D+00  0.000000D+00 -0.564963D-04  0.000000D+00  0.000000D+00
                6 
      6  0.564963D-04
 FormGI is forming the generalized inverse of G from B-inverse, IUseBI=4.
 Force constants in internal coordinates: 
                1 
      1  0.164240D+01
 Leave Link  716 at Fri Sep  6 09:53:41 2024, MaxMem=   104857600 cpu:               0.0 elap:               0.0
 (Enter /Users/asuyarger/Applications/G16/g16/l103.exe)

 GradGradGradGradGradGradGradGradGradGradGradGradGradGradGradGradGradGrad
 Berny optimization.
 Red2BG is reusing G-inverse.
 Internal  Forces:  Max     0.000000021 RMS     0.000000021
 Search for a local minimum.
 Step number   1 out of a maximum of    2
 All quantities printed in internal units (Hartrees-Bohrs-Radians)
 Second derivative matrix not updated -- analytic derivatives used.
 The second derivative matrix:
                          R1
           R1           1.64240
 ITU=  0
     Eigenvalues ---    1.64240
 Angle between quadratic step and forces=  90.00 degrees.
 Linear search not attempted -- first point.
 Iteration  1 RMS(Cart)=  0.00000001 RMS(Int)=  0.00000000
 ITry= 1 IFail=0 DXMaxC= 6.51D-09 DCOld= 1.00D+10 DXMaxT= 3.00D-01 DXLimC= 3.00D+00 Rises=F
 ClnCor:  largest displacement from symmetrization is 3.99D-25 for atom     2.
 Variable       Old X    -DE/DX   Delta X   Delta X   Delta X     New X
                                 (Linear)    (Quad)   (Total)
    R1        2.05637   0.00000   0.00000   0.00000   0.00000   2.05637
         Item               Value     Threshold  Converged?
 Maximum Force            0.000000     0.000450     YES
 RMS     Force            0.000000     0.000300     YES
 Maximum Displacement     0.000000     0.001800     YES
 RMS     Displacement     0.000000     0.001200     YES
 Predicted change in Energy=-1.392569D-16
 Optimization completed.
    -- Stationary point found.
                           ----------------------------
                           !   Optimized Parameters   !
                           ! (Angstroms and Degrees)  !
 --------------------------                            --------------------------
 ! Name  Definition              Value          Derivative Info.                !
 --------------------------------------------------------------------------------
 ! R1    R(1,2)                  1.0882         -DE/DX =    0.0                 !
 --------------------------------------------------------------------------------
 GradGradGradGradGradGradGradGradGradGradGradGradGradGradGradGradGradGrad

 Leave Link  103 at Fri Sep  6 09:53:41 2024, MaxMem=   104857600 cpu:               0.0 elap:               0.0
 (Enter /Users/asuyarger/Applications/G16/g16/l9999.exe)
 Dipole is zero, so no output in dipole orientation.

 ----------------------------------------------------------------------

 Electric dipole moment (input orientation):
 (Debye = 10**-18 statcoulomb cm , SI units = C m)
                  (au)            (Debye)         (10**-30 SI)
   Tot        0.000000D+00      0.000000D+00      0.000000D+00
   x          0.000000D+00      0.000000D+00      0.000000D+00
   y          0.000000D+00      0.000000D+00      0.000000D+00
   z          0.000000D+00      0.000000D+00      0.000000D+00

 Dipole polarizability, Alpha (input orientation).
 (esu units = cm**3 , SI units = C**2 m**2 J**-1)
 Alpha(0;0):
               (au)            (10**-24 esu)      (10**-40 SI)
   iso        0.118421D+02      0.175481D+01      0.195249D+01
   aniso      0.467787D+01      0.693189D+00      0.771277D+00
   xx         0.149607D+02      0.221694D+01      0.246668D+01
   yx         0.000000D+00      0.000000D+00      0.000000D+00
   yy         0.102828D+02      0.152375D+01      0.169540D+01
   zx         0.000000D+00      0.000000D+00      0.000000D+00
   zy         0.000000D+00      0.000000D+00      0.000000D+00
   zz         0.102828D+02      0.152375D+01      0.169540D+01

 ----------------------------------------------------------------------
 1\1\GINC-JEFFSMACSTUDIO\Freq\RwB97XD\Aug-CC-pVTZ\N2\ROOT\06-Sep-2024\0
 \\#P Geom=AllCheck Guess=TCheck SCRF=Check GenChk RwB97XD/Aug-CC-pVTZ 
 Freq\\N2 Opt Freq HF 6-311++g(2d,3p) Full\\0,1\N,0.6313149123,0.526315
 78,0.\N,-0.4568675923,0.52631578,0.\\Version=EM64M-G16RevA.03\State=1-
 SGG\HF=-109.5296501\RMSD=0.000e+00\RMSF=1.235e-08\ZeroPoint=0.005672\T
 hermal=0.0080325\Dipole=0.,0.,0.\DipoleDeriv=0.,0.,0.,0.,0.,0.,0.,0.,0
 .,0.,0.,0.,0.,0.,0.,0.,0.,0.\Polar=14.9606581,0.,10.2827873,0.,0.,10.2
 827873\PolarDeriv=11.2977303,0.,3.7774841,0.,0.,3.7774841,0.,2.2748009
 ,0.,0.,0.,0.,0.,0.,0.,2.2748009,0.,0.,-11.2977303,0.,-3.7774841,0.,0.,
 -3.7774841,0.,-2.2748009,0.,0.,0.,0.,0.,0.,0.,-2.2748009,0.,0.\HyperPo
 lar=0.,0.,0.,0.,0.,0.,0.,0.,0.,0.\Quadrupole=-0.7180872,0.3590436,0.35
 90436,0.,0.,0.\PG=D*H [C*(N1.N1)]\NImag=0\\1.64239804,0.,0.00005650,0.
 ,0.,0.00005650,-1.64239804,0.,0.,1.64239804,0.,-0.00005650,0.,0.,0.000
 05650,0.,0.,-0.00005650,0.,0.,0.00005650\\-0.00000002,0.,0.,0.00000002
 ,0.,0.\\\@


 A FOOL CAN ASK MORE QUESTIONS THAN
 A WISE MAN CAN ANSWER.
 Job cpu time:       0 days  0 hours  0 minutes 15.2 seconds.
 Elapsed time:       0 days  0 hours  0 minutes 15.0 seconds.
 File lengths (MBytes):  RWF=     10 Int=      0 D2E=      0 Chk=      2 Scr=      1
 Normal termination of Gaussian 16 at Fri Sep  6 09:53:41 2024.
