 Entering Gaussian System, Link 0=g16
 Input=/Users/asuyarger/Downloads/N2_DFT_B3LPY_apVTZ_Opt_Freq_Full.gjf
 Output=/Users/asuyarger/Downloads/N2_DFT_B3LPY_apVTZ_Opt_Freq_Full.log
 Initial command:
 /Users/asuyarger/Applications/G16/g16/l1.exe "/Users/asuyarger/Applications/G16/scratch/Gau-88499.inp" -scrdir="/Users/asuyarger/Applications/G16/scratch/"
 Entering Link 1 = /Users/asuyarger/Applications/G16/g16/l1.exe PID=     88500.
  
 Copyright (c) 1988,1990,1992,1993,1995,1998,2003,2009,2016,
            Gaussian, Inc.  All Rights Reserved.
  
 This is part of the Gaussian(R) 16 program.  It is based on
 the Gaussian(R) 09 system (copyright 2009, Gaussian, Inc.),
 the Gaussian(R) 03 system (copyright 2003, Gaussian, Inc.),
 the Gaussian(R) 98 system (copyright 1998, Gaussian, Inc.),
 the Gaussian(R) 94 system (copyright 1995, Gaussian, Inc.),
 the Gaussian 92(TM) system (copyright 1992, Gaussian, Inc.),
 the Gaussian 90(TM) system (copyright 1990, Gaussian, Inc.),
 the Gaussian 88(TM) system (copyright 1988, Gaussian, Inc.),
 the Gaussian 86(TM) system (copyright 1986, Carnegie Mellon
 University), and the Gaussian 82(TM) system (copyright 1983,
 Carnegie Mellon University). Gaussian is a federally registered
 trademark of Gaussian, Inc.
  
 This software contains proprietary and confidential information,
 including trade secrets, belonging to Gaussian, Inc.
  
 This software is provided under written license and may be
 used, copied, transmitted, or stored only in accord with that
 written license.
  
 The following legend is applicable only to US Government
 contracts under FAR:
  
                    RESTRICTED RIGHTS LEGEND
  
 Use, reproduction and disclosure by the US Government is
 subject to restrictions as set forth in subparagraphs (a)
 and (c) of the Commercial Computer Software - Restricted
 Rights clause in FAR 52.227-19.
  
 Gaussian, Inc.
 340 Quinnipiac St., Bldg. 40, Wallingford CT 06492
  
  
 ---------------------------------------------------------------
 Warning -- This program may not be used in any manner that
 competes with the business of Gaussian, Inc. or will provide
 assistance to any competitor of Gaussian, Inc.  The licensee
 of this program is prohibited from giving any competitor of
 Gaussian, Inc. access to this program.  By using this program,
 the user acknowledges that Gaussian, Inc. is engaged in the
 business of creating and licensing software in the field of
 computational chemistry and represents and warrants to the
 licensee that it is not a competitor of Gaussian, Inc. and that
 it will not use this program in any manner prohibited above.
 ---------------------------------------------------------------
  

 Cite this work as:
 Gaussian 16, Revision A.03,
 M. J. Frisch, G. W. Trucks, H. B. Schlegel, G. E. Scuseria, 
 M. A. Robb, J. R. Cheeseman, G. Scalmani, V. Barone, 
 G. A. Petersson, H. Nakatsuji, X. Li, M. Caricato, A. V. Marenich, 
 J. Bloino, B. G. Janesko, R. Gomperts, B. Mennucci, H. P. Hratchian, 
 J. V. Ortiz, A. F. Izmaylov, J. L. Sonnenberg, D. Williams-Young, 
 F. Ding, F. Lipparini, F. Egidi, J. Goings, B. Peng, A. Petrone, 
 T. Henderson, D. Ranasinghe, V. G. Zakrzewski, J. Gao, N. Rega, 
 G. Zheng, W. Liang, M. Hada, M. Ehara, K. Toyota, R. Fukuda, 
 J. Hasegawa, M. Ishida, T. Nakajima, Y. Honda, O. Kitao, H. Nakai, 
 T. Vreven, K. Throssell, J. A. Montgomery, Jr., J. E. Peralta, 
 F. Ogliaro, M. J. Bearpark, J. J. Heyd, E. N. Brothers, K. N. Kudin, 
 V. N. Staroverov, T. A. Keith, R. Kobayashi, J. Normand, 
 K. Raghavachari, A. P. Rendell, J. C. Burant, S. S. Iyengar, 
 J. Tomasi, M. Cossi, J. M. Millam, M. Klene, C. Adamo, R. Cammi, 
 J. W. Ochterski, R. L. Martin, K. Morokuma, O. Farkas, 
 J. B. Foresman, and D. J. Fox, Gaussian, Inc., Wallingford CT, 2016.
 
 ******************************************
 Gaussian 16:  EM64M-G16RevA.03 25-Dec-2016
                 6-Sep-2024 
 ******************************************
 %chk=N2_DFT_B3LPY_apVTZ_Opt_Freq_Full.chk
 ----------------------------------------------------------------------
 #p opt freq=raman b3lyp/aug-cc-pvtz guess=save pop=(hirshfeld,full) ge
 om=connectivity polar
 ----------------------------------------------------------------------
 1/18=20,19=15,26=3,38=1,57=2/1,3;
 2/9=110,12=2,17=6,18=5,40=1/2;
 3/5=16,6=1,7=10,11=2,25=1,30=1,71=1,74=-5/1,2,3;
 4//1;
 5/5=2,38=5,98=1/2;
 6/7=3,28=1,79=1/1;
 7//1,2,3,16;
 1/18=20,19=15,26=3/3(2);
 2/9=110/2;
 99//99;
 2/9=110/2;
 3/5=16,6=1,7=10,11=2,25=1,30=1,71=1,74=-5/1,2,3;
 4/5=5,16=3,69=1/1;
 5/5=2,38=5,98=1/2;
 7//1,2,3,16;
 1/18=20,19=15,26=3/3(-5);
 2/9=110/2;
 6/7=3,19=2,28=1,79=1/1;
 99/9=1/99;
 Leave Link    1 at Fri Sep  6 09:54:32 2024, MaxMem=           0 cpu:               0.0 elap:               0.0
 (Enter /Users/asuyarger/Applications/G16/g16/l101.exe)
 --------------------------------------
 N2 Opt Freq DFT B3LPY aug-cc-pVTX Full
 --------------------------------------
 Symbolic Z-matrix:
 Charge =  0 Multiplicity = 1
 N                     0.63322   0.52632   0. 
 N                    -0.45878   0.52632   0. 
 
 ITRead=  0  0
 MicOpt= -1 -1
 NAtoms=      2 NQM=        2 NQMF=       0 NMMI=      0 NMMIF=      0
                NMic=       0 NMicF=      0.
                    Isotopes and Nuclear Properties:
 (Nuclear quadrupole moments (NQMom) in fm**2, nuclear magnetic moments (NMagM)
  in nuclear magnetons)

  Atom         1           2
 IAtWgt=          14          14
 AtmWgt=  14.0030740  14.0030740
 NucSpn=           2           2
 AtZEff=  -0.0000000  -0.0000000
 NQMom=    2.0440000   2.0440000
 NMagM=    0.4037610   0.4037610
 AtZNuc=   7.0000000   7.0000000
 Leave Link  101 at Fri Sep  6 09:54:32 2024, MaxMem=   104857600 cpu:               0.1 elap:               0.1
 (Enter /Users/asuyarger/Applications/G16/g16/l103.exe)

 GradGradGradGradGradGradGradGradGradGradGradGradGradGradGradGradGradGrad
 Berny optimization.
 Initialization pass.
                           ----------------------------
                           !    Initial Parameters    !
                           ! (Angstroms and Degrees)  !
 --------------------------                            --------------------------
 ! Name  Definition              Value          Derivative Info.                !
 --------------------------------------------------------------------------------
 ! R1    R(1,2)                  1.092          estimate D2E/DX2                !
 --------------------------------------------------------------------------------
 Trust Radius=3.00D-01 FncErr=1.00D-07 GrdErr=1.00D-06 EigMax=2.50D+02 EigMin=1.00D-04
 Number of steps in this run=     20 maximum allowed number of steps=    100.
 GradGradGradGradGradGradGradGradGradGradGradGradGradGradGradGradGradGrad

 Leave Link  103 at Fri Sep  6 09:54:32 2024, MaxMem=   104857600 cpu:               0.0 elap:               0.0
 (Enter /Users/asuyarger/Applications/G16/g16/l202.exe)
                          Input orientation:                          
 ---------------------------------------------------------------------
 Center     Atomic      Atomic             Coordinates (Angstroms)
 Number     Number       Type             X           Y           Z
 ---------------------------------------------------------------------
      1          7           0        0.633224    0.526316    0.000000
      2          7           0       -0.458776    0.526316    0.000000
 ---------------------------------------------------------------------
 Stoichiometry    N2
 Framework group  D*H[C*(N.N)]
 Deg. of freedom     1
 Full point group                 D*H     NOp   8
 Largest Abelian subgroup         D2H     NOp   8
 Largest concise Abelian subgroup C2      NOp   2
                         Standard orientation:                         
 ---------------------------------------------------------------------
 Center     Atomic      Atomic             Coordinates (Angstroms)
 Number     Number       Type             X           Y           Z
 ---------------------------------------------------------------------
      1          7           0        0.000000    0.000000    0.546000
      2          7           0        0.000000    0.000000   -0.546000
 ---------------------------------------------------------------------
 Rotational constants (GHZ):           0.0000000          60.5310956          60.5310956
 Leave Link  202 at Fri Sep  6 09:54:32 2024, MaxMem=   104857600 cpu:               0.0 elap:               0.0
 (Enter /Users/asuyarger/Applications/G16/g16/l301.exe)
 Standard basis: Aug-CC-pVTZ (5D, 7F)
 Ernie: Thresh=  0.10000D-02 Tol=  0.10000D-05 Strict=F.
 Ernie:  6 primitive shells out of 60 were deleted.
 There are    24 symmetry adapted cartesian basis functions of AG  symmetry.
 There are     5 symmetry adapted cartesian basis functions of B1G symmetry.
 There are    13 symmetry adapted cartesian basis functions of B2G symmetry.
 There are    13 symmetry adapted cartesian basis functions of B3G symmetry.
 There are     5 symmetry adapted cartesian basis functions of AU  symmetry.
 There are    24 symmetry adapted cartesian basis functions of B1U symmetry.
 There are    13 symmetry adapted cartesian basis functions of B2U symmetry.
 There are    13 symmetry adapted cartesian basis functions of B3U symmetry.
 There are    19 symmetry adapted basis functions of AG  symmetry.
 There are     5 symmetry adapted basis functions of B1G symmetry.
 There are    11 symmetry adapted basis functions of B2G symmetry.
 There are    11 symmetry adapted basis functions of B3G symmetry.
 There are     5 symmetry adapted basis functions of AU  symmetry.
 There are    19 symmetry adapted basis functions of B1U symmetry.
 There are    11 symmetry adapted basis functions of B2U symmetry.
 There are    11 symmetry adapted basis functions of B3U symmetry.
    92 basis functions,   144 primitive gaussians,   110 cartesian basis functions
     7 alpha electrons        7 beta electrons
       nuclear repulsion energy        23.7451312592 Hartrees.
 IExCor=  402 DFT=T Ex+Corr=B3LYP ExCW=0 ScaHFX=  0.200000
 ScaDFX=  0.800000  0.720000  1.000000  0.810000 ScalE2=  1.000000  1.000000
 IRadAn=      5 IRanWt=     -1 IRanGd=            0 ICorTp=0 IEmpDi=  4
 NAtoms=    2 NActive=    2 NUniq=    1 SFac= 4.00D+00 NAtFMM=   60 NAOKFM=F Big=F
 Integral buffers will be    131072 words long.
 Raffenetti 2 integral format.
 Two-electron integral symmetry is turned on.
 Leave Link  301 at Fri Sep  6 09:54:32 2024, MaxMem=   104857600 cpu:               0.0 elap:               0.0
 (Enter /Users/asuyarger/Applications/G16/g16/l302.exe)
 NPDir=0 NMtPBC=     1 NCelOv=     1 NCel=       1 NClECP=     1 NCelD=      1
         NCelK=      1 NCelE2=     1 NClLst=     1 CellRange=     0.0.
 One-electron integrals computed using PRISM.
 One-electron integral symmetry used in STVInt
 NBasis=    92 RedAO= T EigKep=  6.72D-05  NBF=    19     5    11    11     5    19    11    11
 NBsUse=    92 1.00D-06 EigRej= -1.00D+00 NBFU=    19     5    11    11     5    19    11    11
 Precomputing XC quadrature grid using
 IXCGrd= 4 IRadAn=           5 IRanWt=          -1 IRanGd=           0 AccXCQ= 0.00D+00.
 Generated NRdTot=       0 NPtTot=           0 NUsed=           0 NTot=          32
 NSgBfM=   110   110   110   110   110 MxSgAt=     2 MxSgA2=     2.
 Leave Link  302 at Fri Sep  6 09:54:33 2024, MaxMem=   104857600 cpu:               0.1 elap:               0.1
 (Enter /Users/asuyarger/Applications/G16/g16/l303.exe)
 DipDrv:  MaxL=1.
 Leave Link  303 at Fri Sep  6 09:54:33 2024, MaxMem=   104857600 cpu:               0.0 elap:               0.0
 (Enter /Users/asuyarger/Applications/G16/g16/l401.exe)
 ExpMin= 4.91D-02 ExpMax= 1.14D+04 ExpMxC= 3.89D+02 IAcc=3 IRadAn=         5 AccDes= 0.00D+00
 Harris functional with IExCor=  402 and IRadAn=       5 diagonalized for initial guess.
 HarFok:  IExCor=  402 AccDes= 0.00D+00 IRadAn=         5 IDoV= 1 UseB2=F ITyADJ=14
 ICtDFT=  3500011 ScaDFX=  1.000000  1.000000  1.000000  1.000000
 FoFCou: FMM=F IPFlag=           0 FMFlag=      100000 FMFlg1=           0
         NFxFlg=           0 DoJE=T BraDBF=F KetDBF=T FulRan=T
         wScrn=  0.000000 ICntrl=       500 IOpCl=  0 I1Cent=   200000004 NGrid=           0
         NMat0=    1 NMatS0=      1 NMatT0=    0 NMatD0=    1 NMtDS0=    0 NMtDT0=    0
 Petite list used in FoFCou.
 Harris En= -109.550213950491    
 JPrj=0 DoOrth=F DoCkMO=F.
 Initial guess orbital symmetries:
       Occupied  (SGG) (SGU) (SGG) (SGU) (PIU) (PIU) (SGG)
       Virtual   (PIG) (PIG) (SGG) (SGU) (PIU) (PIU) (SGG) (PIG)
                 (PIG) (SGU) (DLTG) (DLTG) (SGG) (SGU) (PIU) (PIU)
                 (PIG) (PIG) (DLTU) (DLTU) (PIU) (PIU) (SGG) (SGU)
                 (SGU) (PIG) (PIG) (SGG) (DLTG) (DLTG) (PHIU) (PHIU)
                 (PIU) (PIU) (DLTU) (DLTU) (SGU) (SGG) (DLTG) (DLTG)
                 (PIG) (PIG) (PHIG) (PHIG) (SGU) (PIU) (PIU) (DLTU)
                 (DLTU) (PIG) (PIG) (SGU) (SGG) (PIU) (PIU) (SGG)
                 (PIG) (PIG) (DLTG) (DLTG) (SGU) (SGG) (PIU) (PIU)
                 (PHIU) (PHIU) (DLTG) (DLTG) (PHIG) (PHIG) (DLTU)
                 (DLTU) (SGU) (PIG) (PIG) (PIU) (PIU) (DLTU) (DLTU)
                 (SGG) (SGU) (PIG) (PIG) (SGG) (SGU)
 The electronic state of the initial guess is 1-SGG.
 Leave Link  401 at Fri Sep  6 09:54:33 2024, MaxMem=   104857600 cpu:               0.1 elap:               0.1
 (Enter /Users/asuyarger/Applications/G16/g16/l502.exe)
 Keep R1 ints in memory in symmetry-blocked form, NReq=11140536.
 FoFCou: FMM=F IPFlag=           0 FMFlag=           0 FMFlg1=           0
         NFxFlg=           0 DoJE=F BraDBF=F KetDBF=F FulRan=T
         wScrn=  0.000000 ICntrl=       600 IOpCl=  0 I1Cent=           0 NGrid=           0
         NMat0=    1 NMatS0=   4278 NMatT0=    0 NMatD0=    1 NMtDS0=    0 NMtDT0=    0
 Petite list used in FoFCou.
 Closed shell SCF:
 Using DIIS extrapolation, IDIIS=  1040.
 NGot=   104857600 LenX=   103645823 LenY=   103633282
 Requested convergence on RMS density matrix=1.00D-08 within 128 cycles.
 Requested convergence on MAX density matrix=1.00D-06.
 Requested convergence on             energy=1.00D-06.
 No special actions if energy rises.

 Cycle   1  Pass 1  IDiag  1:
 E= -109.562652538209    
 DIIS: error= 1.60D-02 at cycle   1 NSaved=   1.
 NSaved= 1 IEnMin= 1 EnMin= -109.562652538209     IErMin= 1 ErrMin= 1.60D-02
 ErrMax= 1.60D-02  0.00D+00 EMaxC= 1.00D-01 BMatC= 1.66D-02 BMatP= 1.66D-02
 IDIUse=3 WtCom= 8.40D-01 WtEn= 1.60D-01
 Coeff-Com:  0.100D+01
 Coeff-En:   0.100D+01
 Coeff:      0.100D+01
 Gap=     0.405 Goal=   None    Shift=    0.000
 GapD=    0.405 DampG=2.000 DampE=0.500 DampFc=1.0000 IDamp=-1.
 RMSDP=1.89D-03 MaxDP=6.04D-02              OVMax= 3.40D-02

 Cycle   2  Pass 1  IDiag  1:
 E= -109.568080598839     Delta-E=       -0.005428060630 Rises=F Damp=F
 DIIS: error= 7.21D-03 at cycle   2 NSaved=   2.
 NSaved= 2 IEnMin= 2 EnMin= -109.568080598839     IErMin= 2 ErrMin= 7.21D-03
 ErrMax= 7.21D-03  0.00D+00 EMaxC= 1.00D-01 BMatC= 3.23D-03 BMatP= 1.66D-02
 IDIUse=3 WtCom= 9.28D-01 WtEn= 7.21D-02
 Coeff-Com:  0.279D+00 0.721D+00
 Coeff-En:   0.341D-01 0.966D+00
 Coeff:      0.262D+00 0.738D+00
 Gap=     0.407 Goal=   None    Shift=    0.000
 RMSDP=5.61D-04 MaxDP=1.19D-02 DE=-5.43D-03 OVMax= 1.95D-02

 Cycle   3  Pass 1  IDiag  1:
 E= -109.570363318524     Delta-E=       -0.002282719685 Rises=F Damp=F
 DIIS: error= 2.34D-03 at cycle   3 NSaved=   3.
 NSaved= 3 IEnMin= 3 EnMin= -109.570363318524     IErMin= 3 ErrMin= 2.34D-03
 ErrMax= 2.34D-03  0.00D+00 EMaxC= 1.00D-01 BMatC= 2.67D-04 BMatP= 3.23D-03
 IDIUse=3 WtCom= 9.77D-01 WtEn= 2.34D-02
 Coeff-Com:  0.171D-02 0.224D+00 0.774D+00
 Coeff-En:   0.000D+00 0.000D+00 0.100D+01
 Coeff:      0.167D-02 0.219D+00 0.779D+00
 Gap=     0.405 Goal=   None    Shift=    0.000
 RMSDP=1.15D-04 MaxDP=2.02D-03 DE=-2.28D-03 OVMax= 4.54D-03

 Cycle   4  Pass 1  IDiag  1:
 E= -109.570583032641     Delta-E=       -0.000219714117 Rises=F Damp=F
 DIIS: error= 1.23D-04 at cycle   4 NSaved=   4.
 NSaved= 4 IEnMin= 4 EnMin= -109.570583032641     IErMin= 4 ErrMin= 1.23D-04
 ErrMax= 1.23D-04  0.00D+00 EMaxC= 1.00D-01 BMatC= 5.40D-07 BMatP= 2.67D-04
 IDIUse=3 WtCom= 9.99D-01 WtEn= 1.23D-03
 Coeff-Com: -0.100D-03 0.282D-01 0.129D+00 0.843D+00
 Coeff-En:   0.000D+00 0.000D+00 0.000D+00 0.100D+01
 Coeff:     -0.100D-03 0.282D-01 0.129D+00 0.843D+00
 Gap=     0.405 Goal=   None    Shift=    0.000
 RMSDP=6.90D-06 MaxDP=1.67D-04 DE=-2.20D-04 OVMax= 1.66D-04

 Cycle   5  Pass 1  IDiag  1:
 E= -109.570583414553     Delta-E=       -0.000000381912 Rises=F Damp=F
 DIIS: error= 1.11D-05 at cycle   5 NSaved=   5.
 NSaved= 5 IEnMin= 5 EnMin= -109.570583414553     IErMin= 5 ErrMin= 1.11D-05
 ErrMax= 1.11D-05  0.00D+00 EMaxC= 1.00D-01 BMatC= 5.85D-09 BMatP= 5.40D-07
 IDIUse=1 WtCom= 1.00D+00 WtEn= 0.00D+00
 Coeff-Com: -0.487D-04-0.781D-03 0.402D-02 0.124D+00 0.873D+00
 Coeff:     -0.487D-04-0.781D-03 0.402D-02 0.124D+00 0.873D+00
 Gap=     0.405 Goal=   None    Shift=    0.000
 RMSDP=1.29D-06 MaxDP=3.99D-05 DE=-3.82D-07 OVMax= 2.91D-05

 Cycle   6  Pass 1  IDiag  1:
 E= -109.570583418752     Delta-E=       -0.000000004199 Rises=F Damp=F
 DIIS: error= 4.28D-07 at cycle   6 NSaved=   6.
 NSaved= 6 IEnMin= 6 EnMin= -109.570583418752     IErMin= 6 ErrMin= 4.28D-07
 ErrMax= 4.28D-07  0.00D+00 EMaxC= 1.00D-01 BMatC= 7.72D-12 BMatP= 5.85D-09
 IDIUse=1 WtCom= 1.00D+00 WtEn= 0.00D+00
 Coeff-Com:  0.153D-05-0.140D-03-0.800D-03-0.819D-02-0.128D-01 0.102D+01
 Coeff:      0.153D-05-0.140D-03-0.800D-03-0.819D-02-0.128D-01 0.102D+01
 Gap=     0.405 Goal=   None    Shift=    0.000
 RMSDP=4.45D-08 MaxDP=1.21D-06 DE=-4.20D-09 OVMax= 9.88D-07

 Cycle   7  Pass 1  IDiag  1:
 E= -109.570583418758     Delta-E=       -0.000000000006 Rises=F Damp=F
 DIIS: error= 1.45D-08 at cycle   7 NSaved=   7.
 NSaved= 7 IEnMin= 7 EnMin= -109.570583418758     IErMin= 7 ErrMin= 1.45D-08
 ErrMax= 1.45D-08  0.00D+00 EMaxC= 1.00D-01 BMatC= 9.18D-15 BMatP= 7.72D-12
 IDIUse=1 WtCom= 1.00D+00 WtEn= 0.00D+00
 Coeff-Com: -0.113D-06 0.387D-05 0.768D-05-0.627D-04-0.614D-03-0.325D-01
 Coeff-Com:  0.103D+01
 Coeff:     -0.113D-06 0.387D-05 0.768D-05-0.627D-04-0.614D-03-0.325D-01
 Coeff:      0.103D+01
 Gap=     0.405 Goal=   None    Shift=    0.000
 RMSDP=2.34D-09 MaxDP=8.27D-08 DE=-5.85D-12 OVMax= 4.52D-08

 SCF Done:  E(RB3LYP) =  -109.570583419     A.U. after    7 cycles
            NFock=  7  Conv=0.23D-08     -V/T= 2.0057
 KE= 1.089500497934D+02 PE=-3.037307534203D+02 EE= 6.146498894891D+01
 Leave Link  502 at Fri Sep  6 09:54:33 2024, MaxMem=   104857600 cpu:               0.8 elap:               0.8
 (Enter /Users/asuyarger/Applications/G16/g16/l601.exe)
 Copying SCF densities to generalized density rwf, IOpCl= 0 IROHF=0.

 **********************************************************************

            Population analysis using the SCF density.

 **********************************************************************

 Orbital symmetries:
       Occupied  (SGG) (SGU) (SGG) (SGU) (PIU) (PIU) (SGG)
       Virtual   (PIG) (PIG) (SGU) (SGG) (PIU) (PIU) (SGG) (PIG)
                 (PIG) (SGU) (DLTG) (DLTG) (SGG) (SGU) (PIU) (PIU)
                 (PIG) (PIG) (DLTU) (DLTU) (PIU) (PIU) (SGG) (SGU)
                 (SGU) (PIG) (PIG) (SGG) (DLTG) (DLTG) (PHIU) (PHIU)
                 (PIU) (PIU) (DLTU) (DLTU) (SGU) (SGG) (DLTG) (DLTG)
                 (PIG) (PIG) (PHIG) (PHIG) (SGU) (PIU) (PIU) (DLTU)
                 (DLTU) (PIG) (PIG) (SGU) (SGG) (PIU) (PIU) (SGG)
                 (PIG) (PIG) (DLTG) (DLTG) (SGU) (PIU) (PIU) (SGG)
                 (PHIU) (PHIU) (DLTG) (DLTG) (PHIG) (PHIG) (DLTU)
                 (DLTU) (SGU) (PIG) (PIG) (PIU) (PIU) (DLTU) (DLTU)
                 (SGG) (SGU) (PIG) (PIG) (SGG) (SGU)
 The electronic state is 1-SGG.
 Alpha  occ. eigenvalues --  -14.42655 -14.42467  -1.13696  -0.55940  -0.47594
 Alpha  occ. eigenvalues --   -0.47594  -0.44015
 Alpha virt. eigenvalues --   -0.03479  -0.03479   0.04590   0.04857   0.06616
 Alpha virt. eigenvalues --    0.06616   0.10637   0.12814   0.12814   0.21528
 Alpha virt. eigenvalues --    0.29142   0.29142   0.37090   0.41139   0.45085
 Alpha virt. eigenvalues --    0.45085   0.45759   0.45759   0.47132   0.47132
 Alpha virt. eigenvalues --    0.55491   0.55491   0.60207   0.61770   0.82256
 Alpha virt. eigenvalues --    0.88008   0.88008   1.03011   1.12461   1.12461
 Alpha virt. eigenvalues --    1.17573   1.17573   1.24774   1.24774   1.35856
 Alpha virt. eigenvalues --    1.35856   1.40287   1.47878   1.49492   1.49492
 Alpha virt. eigenvalues --    1.51656   1.51656   1.52692   1.52692   1.75859
 Alpha virt. eigenvalues --    1.92997   1.92997   2.08308   2.08308   2.15565
 Alpha virt. eigenvalues --    2.15565   2.45582   2.47476   2.86534   2.86534
 Alpha virt. eigenvalues --    3.62006   3.88113   3.88113   4.01857   4.01857
 Alpha virt. eigenvalues --    4.08671   4.13113   4.13113   4.13390   4.29136
 Alpha virt. eigenvalues --    4.29136   4.65658   4.65658   4.67122   4.67122
 Alpha virt. eigenvalues --    4.74388   4.74388   4.80013   4.98151   4.98151
 Alpha virt. eigenvalues --    5.17185   5.17185   5.34714   5.34714   6.25077
 Alpha virt. eigenvalues --    6.29905   6.44723   6.44723  10.30128  18.63052
     Molecular Orbital Coefficients:
                           1         2         3         4         5
                       (SGG)--O  (SGU)--O  (SGG)--O  (SGU)--O  (PIU)--O
     Eigenvalues --   -14.42655 -14.42467  -1.13696  -0.55940  -0.47594
   1 1   N  1S          0.68879   0.68957  -0.15918  -0.14492   0.00000
   2        2S         -0.00269   0.00032   0.34205   0.35868   0.00000
   3        3S          0.03807   0.03585   0.09982   0.10770   0.00000
   4        4S          0.00199   0.06976   0.10471   0.47454   0.00000
   5        5S         -0.00167   0.01860  -0.00524   0.08212   0.00000
   6        6PX         0.00000   0.00000   0.00000   0.00000   0.00000
   7        6PY         0.00000   0.00000   0.00000   0.00000   0.25104
   8        6PZ        -0.00218  -0.00050  -0.13868   0.11701   0.00000
   9        7PX         0.00000   0.00000   0.00000   0.00000   0.00000
  10        7PY         0.00000   0.00000   0.00000   0.00000   0.30281
  11        7PZ        -0.00001  -0.01333  -0.13189   0.13026   0.00000
  12        8PX         0.00000   0.00000   0.00000   0.00000   0.00000
  13        8PY         0.00000   0.00000   0.00000   0.00000   0.16477
  14        8PZ         0.00720  -0.03036   0.00258  -0.00458   0.00000
  15        9PX         0.00000   0.00000   0.00000   0.00000   0.00000
  16        9PY         0.00000   0.00000   0.00000   0.00000   0.00690
  17        9PZ         0.00097  -0.00329   0.00951  -0.00671   0.00000
  18       10D 0        0.00077   0.00160   0.01831  -0.00501   0.00000
  19       10D+1        0.00000   0.00000   0.00000   0.00000   0.00000
  20       10D-1        0.00000   0.00000   0.00000   0.00000  -0.01786
  21       10D+2        0.00000  -0.00000  -0.00000   0.00000   0.00000
  22       10D-2        0.00000   0.00000   0.00000   0.00000   0.00000
  23       11D 0       -0.00351   0.00676   0.01187  -0.00836   0.00000
  24       11D+1        0.00000   0.00000   0.00000   0.00000   0.00000
  25       11D-1        0.00000   0.00000   0.00000   0.00000  -0.02956
  26       11D+2       -0.00000   0.00000  -0.00000   0.00000   0.00000
  27       11D-2        0.00000   0.00000   0.00000   0.00000   0.00000
  28       12D 0       -0.00303   0.00467  -0.01378   0.01108   0.00000
  29       12D+1        0.00000   0.00000   0.00000   0.00000   0.00000
  30       12D-1        0.00000   0.00000   0.00000   0.00000  -0.00443
  31       12D+2        0.00000   0.00000   0.00000   0.00000   0.00000
  32       12D-2        0.00000   0.00000   0.00000   0.00000   0.00000
  33       13F 0        0.00048  -0.00167  -0.00693  -0.00023   0.00000
  34       13F+1        0.00000   0.00000   0.00000   0.00000   0.00000
  35       13F-1        0.00000   0.00000   0.00000   0.00000   0.00745
  36       13F+2        0.00000   0.00000  -0.00000   0.00000   0.00000
  37       13F-2        0.00000   0.00000   0.00000   0.00000   0.00000
  38       13F+3        0.00000   0.00000   0.00000   0.00000   0.00000
  39       13F-3        0.00000   0.00000   0.00000   0.00000   0.00000
  40       14F 0        0.00180  -0.00113   0.00330   0.00094   0.00000
  41       14F+1        0.00000   0.00000   0.00000   0.00000   0.00000
  42       14F-1        0.00000   0.00000   0.00000   0.00000  -0.00004
  43       14F+2        0.00000  -0.00000  -0.00000  -0.00000   0.00000
  44       14F-2        0.00000   0.00000   0.00000   0.00000   0.00000
  45       14F+3        0.00000   0.00000   0.00000   0.00000   0.00000
  46       14F-3        0.00000   0.00000   0.00000   0.00000  -0.00000
  47 2   N  1S          0.68879  -0.68957  -0.15918   0.14492   0.00000
  48        2S         -0.00269  -0.00032   0.34205  -0.35868   0.00000
  49        3S          0.03807  -0.03585   0.09982  -0.10770   0.00000
  50        4S          0.00199  -0.06976   0.10471  -0.47454   0.00000
  51        5S         -0.00167  -0.01860  -0.00524  -0.08212   0.00000
  52        6PX         0.00000   0.00000   0.00000   0.00000   0.00000
  53        6PY         0.00000   0.00000   0.00000   0.00000   0.25104
  54        6PZ         0.00218  -0.00050   0.13868   0.11701   0.00000
  55        7PX         0.00000   0.00000   0.00000   0.00000   0.00000
  56        7PY         0.00000   0.00000   0.00000   0.00000   0.30281
  57        7PZ         0.00001  -0.01333   0.13189   0.13026   0.00000
  58        8PX         0.00000   0.00000   0.00000   0.00000   0.00000
  59        8PY         0.00000   0.00000   0.00000   0.00000   0.16477
  60        8PZ        -0.00720  -0.03036  -0.00258  -0.00458   0.00000
  61        9PX         0.00000   0.00000   0.00000   0.00000   0.00000
  62        9PY         0.00000   0.00000   0.00000   0.00000   0.00690
  63        9PZ        -0.00097  -0.00329  -0.00951  -0.00671   0.00000
  64       10D 0        0.00077  -0.00160   0.01831   0.00501   0.00000
  65       10D+1        0.00000   0.00000   0.00000   0.00000   0.00000
  66       10D-1        0.00000   0.00000   0.00000   0.00000   0.01786
  67       10D+2        0.00000   0.00000  -0.00000  -0.00000   0.00000
  68       10D-2        0.00000   0.00000   0.00000   0.00000   0.00000
  69       11D 0       -0.00351  -0.00676   0.01187   0.00836   0.00000
  70       11D+1        0.00000   0.00000   0.00000   0.00000   0.00000
  71       11D-1        0.00000   0.00000   0.00000   0.00000   0.02956
  72       11D+2       -0.00000  -0.00000  -0.00000  -0.00000   0.00000
  73       11D-2        0.00000   0.00000   0.00000   0.00000   0.00000
  74       12D 0       -0.00303  -0.00467  -0.01378  -0.01108   0.00000
  75       12D+1        0.00000   0.00000   0.00000   0.00000   0.00000
  76       12D-1        0.00000   0.00000   0.00000   0.00000   0.00443
  77       12D+2        0.00000  -0.00000   0.00000  -0.00000   0.00000
  78       12D-2        0.00000   0.00000   0.00000   0.00000   0.00000
  79       13F 0       -0.00048  -0.00167   0.00693  -0.00023   0.00000
  80       13F+1        0.00000   0.00000   0.00000   0.00000   0.00000
  81       13F-1        0.00000   0.00000   0.00000   0.00000   0.00745
  82       13F+2       -0.00000   0.00000   0.00000   0.00000   0.00000
  83       13F-2        0.00000   0.00000   0.00000   0.00000   0.00000
  84       13F+3        0.00000   0.00000   0.00000   0.00000   0.00000
  85       13F-3        0.00000   0.00000   0.00000   0.00000   0.00000
  86       14F 0       -0.00180  -0.00113  -0.00330   0.00094   0.00000
  87       14F+1        0.00000   0.00000   0.00000   0.00000   0.00000
  88       14F-1        0.00000   0.00000   0.00000   0.00000  -0.00004
  89       14F+2       -0.00000  -0.00000   0.00000  -0.00000   0.00000
  90       14F-2        0.00000   0.00000   0.00000   0.00000   0.00000
  91       14F+3        0.00000   0.00000   0.00000   0.00000   0.00000
  92       14F-3        0.00000   0.00000   0.00000   0.00000  -0.00000
                           6         7         8         9        10
                       (PIU)--O  (SGG)--O  (PIG)--V  (PIG)--V  (SGU)--V
     Eigenvalues --    -0.47594  -0.44015  -0.03479  -0.03479   0.04590
   1 1   N  1S          0.00000  -0.05118   0.00000   0.00000  -0.02770
   2        2S          0.00000   0.12936   0.00000   0.00000   0.08166
   3        3S          0.00000   0.03476   0.00000   0.00000   0.02132
   4        4S          0.00000   0.23702   0.00000   0.00000   3.28815
   5        5S          0.00000   0.04335   0.00000   0.00000   9.96937
   6        6PX         0.25104   0.00000   0.00000   0.26474   0.00000
   7        6PY         0.00000   0.00000   0.26474   0.00000   0.00000
   8        6PZ         0.00000   0.26541   0.00000   0.00000   0.02152
   9        7PX         0.30281   0.00000   0.00000   0.33106   0.00000
  10        7PY         0.00000   0.00000   0.33106   0.00000   0.00000
  11        7PZ         0.00000   0.28725   0.00000   0.00000  -0.08610
  12        8PX         0.16477   0.00000   0.00000   0.38647   0.00000
  13        8PY         0.00000   0.00000   0.38647   0.00000   0.00000
  14        8PZ         0.00000   0.13148   0.00000   0.00000  -1.73855
  15        9PX         0.00690   0.00000   0.00000   0.41413   0.00000
  16        9PY         0.00000   0.00000   0.41413   0.00000   0.00000
  17        9PZ         0.00000   0.00326   0.00000   0.00000  -2.81468
  18       10D 0        0.00000  -0.01779   0.00000   0.00000  -0.00166
  19       10D+1       -0.01786   0.00000   0.00000   0.00960   0.00000
  20       10D-1        0.00000   0.00000   0.00960   0.00000   0.00000
  21       10D+2        0.00000  -0.00000   0.00000   0.00000  -0.00000
  22       10D-2        0.00000   0.00000   0.00000   0.00000   0.00000
  23       11D 0        0.00000  -0.00949   0.00000   0.00000   0.07562
  24       11D+1       -0.02956   0.00000   0.00000   0.03320   0.00000
  25       11D-1        0.00000   0.00000   0.03320   0.00000   0.00000
  26       11D+2        0.00000   0.00000   0.00000   0.00000   0.00000
  27       11D-2        0.00000   0.00000   0.00000   0.00000   0.00000
  28       12D 0        0.00000   0.00369   0.00000   0.00000   0.35454
  29       12D+1       -0.00443   0.00000   0.00000   0.02630   0.00000
  30       12D-1        0.00000   0.00000   0.02630   0.00000   0.00000
  31       12D+2        0.00000   0.00000   0.00000   0.00000   0.00000
  32       12D-2        0.00000   0.00000   0.00000   0.00000   0.00000
  33       13F 0        0.00000   0.00467   0.00000   0.00000  -0.00492
  34       13F+1        0.00745   0.00000   0.00000  -0.00431   0.00000
  35       13F-1        0.00000   0.00000  -0.00431   0.00000   0.00000
  36       13F+2        0.00000  -0.00000   0.00000   0.00000  -0.00000
  37       13F-2        0.00000   0.00000   0.00000   0.00000   0.00000
  38       13F+3       -0.00000   0.00000   0.00000  -0.00000   0.00000
  39       13F-3        0.00000   0.00000   0.00000   0.00000   0.00000
  40       14F 0        0.00000  -0.00393   0.00000   0.00000  -0.01543
  41       14F+1       -0.00004   0.00000   0.00000  -0.00729   0.00000
  42       14F-1        0.00000   0.00000  -0.00729   0.00000   0.00000
  43       14F+2        0.00000   0.00000   0.00000   0.00000  -0.00000
  44       14F-2        0.00000   0.00000   0.00000   0.00000   0.00000
  45       14F+3        0.00000   0.00000   0.00000   0.00000   0.00000
  46       14F-3        0.00000   0.00000  -0.00000   0.00000   0.00000
  47 2   N  1S          0.00000  -0.05118   0.00000   0.00000   0.02770
  48        2S          0.00000   0.12936   0.00000   0.00000  -0.08166
  49        3S          0.00000   0.03476   0.00000   0.00000  -0.02132
  50        4S          0.00000   0.23702   0.00000   0.00000  -3.28815
  51        5S          0.00000   0.04335   0.00000   0.00000  -9.96937
  52        6PX         0.25104   0.00000   0.00000  -0.26474   0.00000
  53        6PY         0.00000   0.00000  -0.26474   0.00000   0.00000
  54        6PZ         0.00000  -0.26541   0.00000   0.00000   0.02152
  55        7PX         0.30281   0.00000   0.00000  -0.33106   0.00000
  56        7PY         0.00000   0.00000  -0.33106   0.00000   0.00000
  57        7PZ         0.00000  -0.28725   0.00000   0.00000  -0.08610
  58        8PX         0.16477   0.00000   0.00000  -0.38647   0.00000
  59        8PY         0.00000   0.00000  -0.38647   0.00000   0.00000
  60        8PZ         0.00000  -0.13148   0.00000   0.00000  -1.73855
  61        9PX         0.00690   0.00000   0.00000  -0.41413   0.00000
  62        9PY         0.00000   0.00000  -0.41413   0.00000   0.00000
  63        9PZ         0.00000  -0.00326   0.00000   0.00000  -2.81468
  64       10D 0        0.00000  -0.01779   0.00000   0.00000   0.00166
  65       10D+1        0.01786   0.00000   0.00000   0.00960   0.00000
  66       10D-1        0.00000   0.00000   0.00960   0.00000   0.00000
  67       10D+2        0.00000  -0.00000   0.00000   0.00000   0.00000
  68       10D-2        0.00000   0.00000   0.00000   0.00000   0.00000
  69       11D 0        0.00000  -0.00949   0.00000   0.00000  -0.07562
  70       11D+1        0.02956   0.00000   0.00000   0.03320   0.00000
  71       11D-1        0.00000   0.00000   0.03320   0.00000   0.00000
  72       11D+2        0.00000   0.00000   0.00000   0.00000  -0.00000
  73       11D-2        0.00000   0.00000   0.00000   0.00000   0.00000
  74       12D 0        0.00000   0.00369   0.00000   0.00000  -0.35454
  75       12D+1        0.00443   0.00000   0.00000   0.02630   0.00000
  76       12D-1        0.00000   0.00000   0.02630   0.00000   0.00000
  77       12D+2        0.00000   0.00000   0.00000   0.00000  -0.00000
  78       12D-2        0.00000   0.00000   0.00000   0.00000   0.00000
  79       13F 0        0.00000  -0.00467   0.00000   0.00000  -0.00492
  80       13F+1        0.00745   0.00000   0.00000   0.00431   0.00000
  81       13F-1        0.00000   0.00000   0.00431   0.00000   0.00000
  82       13F+2        0.00000   0.00000   0.00000   0.00000  -0.00000
  83       13F-2        0.00000   0.00000   0.00000   0.00000   0.00000
  84       13F+3       -0.00000   0.00000   0.00000   0.00000   0.00000
  85       13F-3        0.00000   0.00000  -0.00000   0.00000   0.00000
  86       14F 0        0.00000   0.00393   0.00000   0.00000  -0.01543
  87       14F+1       -0.00004   0.00000   0.00000   0.00729   0.00000
  88       14F-1        0.00000   0.00000   0.00729   0.00000   0.00000
  89       14F+2        0.00000  -0.00000   0.00000   0.00000  -0.00000
  90       14F-2        0.00000   0.00000   0.00000   0.00000   0.00000
  91       14F+3        0.00000   0.00000   0.00000  -0.00000   0.00000
  92       14F-3        0.00000   0.00000   0.00000   0.00000   0.00000
                          11        12        13        14        15
                       (SGG)--V  (PIU)--V  (PIU)--V  (SGG)--V  (PIG)--V
     Eigenvalues --     0.04857   0.06616   0.06616   0.10637   0.12814
   1 1   N  1S          0.04039   0.00000   0.00000  -0.01242   0.00000
   2        2S         -0.13243   0.00000   0.00000   0.08499   0.00000
   3        3S         -0.05818   0.00000   0.00000   0.03380   0.00000
   4        4S         -0.70127   0.00000   0.00000   0.66246   0.00000
   5        5S          0.97665   0.00000   0.00000  -0.12518   0.00000
   6        6PX         0.00000   0.00000  -0.07458   0.00000  -0.11073
   7        6PY         0.00000  -0.07458   0.00000   0.00000   0.00000
   8        6PZ        -0.06793   0.00000   0.00000  -0.01495   0.00000
   9        7PX         0.00000   0.00000  -0.06779   0.00000  -0.11229
  10        7PY         0.00000  -0.06779   0.00000   0.00000   0.00000
  11        7PZ        -0.03554   0.00000   0.00000  -0.04714   0.00000
  12        8PX         0.00000   0.00000  -0.16315   0.00000   0.61447
  13        8PY         0.00000  -0.16315   0.00000   0.00000   0.00000
  14        8PZ        -0.37342   0.00000   0.00000   0.32809   0.00000
  15        9PX         0.00000   0.00000   0.59280   0.00000   2.72977
  16        9PY         0.00000   0.59280   0.00000   0.00000   0.00000
  17        9PZ         0.35321   0.00000   0.00000   1.97786   0.00000
  18       10D 0       -0.00408   0.00000   0.00000   0.00666   0.00000
  19       10D+1        0.00000   0.00000   0.00623   0.00000  -0.00150
  20       10D-1        0.00000   0.00623   0.00000   0.00000   0.00000
  21       10D+2       -0.00000   0.00000   0.00000   0.00000   0.00000
  22       10D-2        0.00000   0.00000   0.00000   0.00000   0.00000
  23       11D 0        0.02752   0.00000   0.00000   0.01041   0.00000
  24       11D+1        0.00000   0.00000   0.01565   0.00000  -0.04910
  25       11D-1        0.00000   0.01565   0.00000   0.00000   0.00000
  26       11D+2        0.00000   0.00000   0.00000  -0.00000   0.00000
  27       11D-2        0.00000   0.00000   0.00000   0.00000   0.00000
  28       12D 0        0.11385   0.00000   0.00000  -0.28967   0.00000
  29       12D+1        0.00000   0.00000  -0.00884   0.00000  -0.53766
  30       12D-1        0.00000  -0.00884   0.00000   0.00000   0.00000
  31       12D+2       -0.00000   0.00000   0.00000   0.00000   0.00000
  32       12D-2        0.00000   0.00000   0.00000   0.00000   0.00000
  33       13F 0       -0.00019   0.00000   0.00000  -0.00326   0.00000
  34       13F+1        0.00000   0.00000  -0.00399   0.00000  -0.00220
  35       13F-1        0.00000  -0.00399   0.00000   0.00000   0.00000
  36       13F+2       -0.00000   0.00000   0.00000   0.00000   0.00000
  37       13F-2        0.00000   0.00000   0.00000   0.00000   0.00000
  38       13F+3        0.00000   0.00000   0.00000   0.00000   0.00000
  39       13F-3        0.00000  -0.00000   0.00000   0.00000   0.00000
  40       14F 0       -0.02482   0.00000   0.00000   0.02868   0.00000
  41       14F+1        0.00000   0.00000   0.00207   0.00000   0.05686
  42       14F-1        0.00000   0.00207   0.00000   0.00000   0.00000
  43       14F+2        0.00000   0.00000   0.00000  -0.00000   0.00000
  44       14F-2        0.00000   0.00000   0.00000   0.00000   0.00000
  45       14F+3        0.00000   0.00000  -0.00000   0.00000  -0.00000
  46       14F-3        0.00000   0.00000   0.00000   0.00000   0.00000
  47 2   N  1S          0.04039   0.00000   0.00000  -0.01242   0.00000
  48        2S         -0.13243   0.00000   0.00000   0.08499   0.00000
  49        3S         -0.05818   0.00000   0.00000   0.03380   0.00000
  50        4S         -0.70127   0.00000   0.00000   0.66246   0.00000
  51        5S          0.97665   0.00000   0.00000  -0.12518   0.00000
  52        6PX         0.00000   0.00000  -0.07458   0.00000   0.11073
  53        6PY         0.00000  -0.07458   0.00000   0.00000   0.00000
  54        6PZ         0.06793   0.00000   0.00000   0.01495   0.00000
  55        7PX         0.00000   0.00000  -0.06779   0.00000   0.11229
  56        7PY         0.00000  -0.06779   0.00000   0.00000   0.00000
  57        7PZ         0.03554   0.00000   0.00000   0.04714   0.00000
  58        8PX         0.00000   0.00000  -0.16315   0.00000  -0.61447
  59        8PY         0.00000  -0.16315   0.00000   0.00000   0.00000
  60        8PZ         0.37342   0.00000   0.00000  -0.32809   0.00000
  61        9PX         0.00000   0.00000   0.59280   0.00000  -2.72977
  62        9PY         0.00000   0.59280   0.00000   0.00000   0.00000
  63        9PZ        -0.35321   0.00000   0.00000  -1.97786   0.00000
  64       10D 0       -0.00408   0.00000   0.00000   0.00666   0.00000
  65       10D+1        0.00000   0.00000  -0.00623   0.00000  -0.00150
  66       10D-1        0.00000  -0.00623   0.00000   0.00000   0.00000
  67       10D+2       -0.00000   0.00000   0.00000   0.00000   0.00000
  68       10D-2        0.00000   0.00000   0.00000   0.00000   0.00000
  69       11D 0        0.02752   0.00000   0.00000   0.01041   0.00000
  70       11D+1        0.00000   0.00000  -0.01565   0.00000  -0.04910
  71       11D-1        0.00000  -0.01565   0.00000   0.00000   0.00000
  72       11D+2        0.00000   0.00000   0.00000  -0.00000   0.00000
  73       11D-2        0.00000   0.00000   0.00000   0.00000   0.00000
  74       12D 0        0.11385   0.00000   0.00000  -0.28967   0.00000
  75       12D+1        0.00000   0.00000   0.00884   0.00000  -0.53766
  76       12D-1        0.00000   0.00884   0.00000   0.00000   0.00000
  77       12D+2       -0.00000   0.00000   0.00000   0.00000   0.00000
  78       12D-2        0.00000   0.00000   0.00000   0.00000   0.00000
  79       13F 0        0.00019   0.00000   0.00000   0.00326   0.00000
  80       13F+1        0.00000   0.00000  -0.00399   0.00000   0.00220
  81       13F-1        0.00000  -0.00399   0.00000   0.00000   0.00000
  82       13F+2        0.00000   0.00000   0.00000  -0.00000   0.00000
  83       13F-2        0.00000   0.00000   0.00000   0.00000   0.00000
  84       13F+3        0.00000   0.00000   0.00000   0.00000  -0.00000
  85       13F-3        0.00000  -0.00000   0.00000   0.00000   0.00000
  86       14F 0        0.02482   0.00000   0.00000  -0.02868   0.00000
  87       14F+1        0.00000   0.00000   0.00207   0.00000  -0.05686
  88       14F-1        0.00000   0.00207   0.00000   0.00000   0.00000
  89       14F+2       -0.00000   0.00000   0.00000   0.00000   0.00000
  90       14F-2        0.00000   0.00000   0.00000   0.00000   0.00000
  91       14F+3        0.00000   0.00000  -0.00000   0.00000   0.00000
  92       14F-3        0.00000   0.00000   0.00000   0.00000   0.00000
                          16        17        18        19        20
                       (PIG)--V  (SGU)--V  (DLTG)--  (DLTG)--  (SGG)--V
     Eigenvalues --     0.12814   0.21528   0.29142   0.29142   0.37090
   1 1   N  1S          0.00000   0.05031   0.00000   0.00000   0.04930
   2        2S          0.00000  -0.12013   0.00000   0.00000   0.03490
   3        3S          0.00000  -0.06146   0.00000   0.00000   0.01858
   4        4S          0.00000   7.79009   0.00000   0.00000   1.85617
   5        5S          0.00000  24.62840   0.00000  -0.00000  -0.77548
   6        6PX         0.00000   0.00000   0.00000   0.00000   0.00000
   7        6PY        -0.11073   0.00000   0.00000   0.00000   0.00000
   8        6PZ         0.00000  -0.01492   0.00000   0.00000   0.05910
   9        7PX         0.00000   0.00000   0.00000   0.00000   0.00000
  10        7PY        -0.11229   0.00000   0.00000   0.00000   0.00000
  11        7PZ         0.00000  -0.33562   0.00000  -0.00000  -0.04147
  12        8PX         0.00000   0.00000   0.00000   0.00000   0.00000
  13        8PY         0.61447   0.00000   0.00000   0.00000   0.00000
  14        8PZ         0.00000  -4.67408   0.00000   0.00000   1.02714
  15        9PX         0.00000   0.00000   0.00000   0.00000   0.00000
  16        9PY         2.72977   0.00000   0.00000   0.00000   0.00000
  17        9PZ         0.00000  -5.25884   0.00000   0.00000   1.83620
  18       10D 0        0.00000   0.00696   0.00000  -0.00000  -0.02278
  19       10D+1        0.00000   0.00000   0.00000   0.00000   0.00000
  20       10D-1       -0.00150   0.00000   0.00000   0.00000   0.00000
  21       10D+2        0.00000  -0.00000   0.00000   0.02749  -0.00000
  22       10D-2        0.00000   0.00000   0.02749   0.00000   0.00000
  23       11D 0        0.00000   0.25237   0.00000  -0.00000  -0.07264
  24       11D+1        0.00000   0.00000   0.00000   0.00000   0.00000
  25       11D-1       -0.04910   0.00000   0.00000   0.00000   0.00000
  26       11D+2        0.00000   0.00000   0.00000  -0.02191  -0.00000
  27       11D-2        0.00000   0.00000  -0.02191   0.00000   0.00000
  28       12D 0        0.00000   0.91708   0.00000  -0.00000  -1.48233
  29       12D+1        0.00000   0.00000   0.00000   0.00000   0.00000
  30       12D-1       -0.53766   0.00000   0.00000   0.00000   0.00000
  31       12D+2        0.00000   0.00000   0.00000   0.54704  -0.00000
  32       12D-2        0.00000   0.00000   0.54704   0.00000   0.00000
  33       13F 0        0.00000  -0.01762   0.00000   0.00000  -0.00003
  34       13F+1        0.00000   0.00000   0.00000   0.00000   0.00000
  35       13F-1       -0.00220   0.00000   0.00000   0.00000   0.00000
  36       13F+2        0.00000   0.00000   0.00000  -0.00629  -0.00000
  37       13F-2        0.00000   0.00000  -0.00629   0.00000   0.00000
  38       13F+3        0.00000   0.00000   0.00000   0.00000   0.00000
  39       13F-3       -0.00000   0.00000   0.00000   0.00000   0.00000
  40       14F 0        0.00000  -0.04143   0.00000   0.00000   0.10896
  41       14F+1        0.00000   0.00000   0.00000   0.00000   0.00000
  42       14F-1        0.05686   0.00000   0.00000   0.00000   0.00000
  43       14F+2        0.00000  -0.00000   0.00000   0.00172   0.00000
  44       14F-2        0.00000   0.00000   0.00172   0.00000   0.00000
  45       14F+3        0.00000   0.00000   0.00000   0.00000   0.00000
  46       14F-3        0.00000   0.00000   0.00000   0.00000   0.00000
  47 2   N  1S          0.00000  -0.05031   0.00000   0.00000   0.04930
  48        2S          0.00000   0.12013   0.00000   0.00000   0.03490
  49        3S          0.00000   0.06146   0.00000   0.00000   0.01858
  50        4S          0.00000  -7.79009   0.00000   0.00000   1.85617
  51        5S          0.00000 -24.62840   0.00000  -0.00000  -0.77548
  52        6PX         0.00000   0.00000   0.00000   0.00000   0.00000
  53        6PY         0.11073   0.00000   0.00000   0.00000   0.00000
  54        6PZ         0.00000  -0.01492   0.00000  -0.00000  -0.05910
  55        7PX         0.00000   0.00000   0.00000   0.00000   0.00000
  56        7PY         0.11229   0.00000   0.00000   0.00000   0.00000
  57        7PZ         0.00000  -0.33562   0.00000   0.00000   0.04147
  58        8PX         0.00000   0.00000   0.00000   0.00000   0.00000
  59        8PY        -0.61447   0.00000   0.00000   0.00000   0.00000
  60        8PZ         0.00000  -4.67408   0.00000  -0.00000  -1.02714
  61        9PX         0.00000   0.00000   0.00000   0.00000   0.00000
  62        9PY        -2.72977   0.00000   0.00000   0.00000   0.00000
  63        9PZ         0.00000  -5.25884   0.00000  -0.00000  -1.83620
  64       10D 0        0.00000  -0.00696   0.00000  -0.00000  -0.02278
  65       10D+1        0.00000   0.00000   0.00000   0.00000   0.00000
  66       10D-1       -0.00150   0.00000   0.00000   0.00000   0.00000
  67       10D+2        0.00000   0.00000   0.00000   0.02749  -0.00000
  68       10D-2        0.00000   0.00000   0.02749   0.00000   0.00000
  69       11D 0        0.00000  -0.25237   0.00000  -0.00000  -0.07264
  70       11D+1        0.00000   0.00000   0.00000   0.00000   0.00000
  71       11D-1       -0.04910   0.00000   0.00000   0.00000   0.00000
  72       11D+2        0.00000  -0.00000   0.00000  -0.02191  -0.00000
  73       11D-2        0.00000   0.00000  -0.02191   0.00000   0.00000
  74       12D 0        0.00000  -0.91708   0.00000  -0.00000  -1.48233
  75       12D+1        0.00000   0.00000   0.00000   0.00000   0.00000
  76       12D-1       -0.53766   0.00000   0.00000   0.00000   0.00000
  77       12D+2        0.00000  -0.00000   0.00000   0.54704  -0.00000
  78       12D-2        0.00000   0.00000   0.54704   0.00000   0.00000
  79       13F 0        0.00000  -0.01762   0.00000  -0.00000   0.00003
  80       13F+1        0.00000   0.00000   0.00000   0.00000   0.00000
  81       13F-1        0.00220   0.00000   0.00000   0.00000   0.00000
  82       13F+2        0.00000   0.00000   0.00000   0.00629   0.00000
  83       13F-2        0.00000   0.00000   0.00629   0.00000   0.00000
  84       13F+3        0.00000   0.00000   0.00000   0.00000   0.00000
  85       13F-3        0.00000   0.00000   0.00000   0.00000   0.00000
  86       14F 0        0.00000  -0.04143   0.00000  -0.00000  -0.10896
  87       14F+1        0.00000   0.00000   0.00000   0.00000   0.00000
  88       14F-1       -0.05686   0.00000   0.00000   0.00000   0.00000
  89       14F+2        0.00000  -0.00000   0.00000  -0.00172  -0.00000
  90       14F-2        0.00000   0.00000  -0.00172   0.00000   0.00000
  91       14F+3        0.00000   0.00000   0.00000   0.00000   0.00000
  92       14F-3       -0.00000   0.00000   0.00000   0.00000   0.00000
                          21        22        23        24        25
                       (SGU)--V  (PIU)--V  (PIU)--V  (PIG)--V  (PIG)--V
     Eigenvalues --     0.41139   0.45085   0.45085   0.45759   0.45759
   1 1   N  1S          0.02109   0.00000   0.00000   0.00000   0.00000
   2        2S         -0.09661   0.00000   0.00000   0.00000   0.00000
   3        3S         -0.02408   0.00000   0.00000   0.00000   0.00000
   4        4S          6.94478   0.00000   0.00000   0.00000   0.00000
   5        5S          1.94157   0.00000   0.00000   0.00000   0.00000
   6        6PX         0.00000   0.00000  -0.04037   0.14491   0.00000
   7        6PY         0.00000  -0.04037   0.00000   0.00000   0.14491
   8        6PZ         0.10776   0.00000   0.00000   0.00000   0.00000
   9        7PX         0.00000   0.00000  -0.07499   0.34317   0.00000
  10        7PY         0.00000  -0.07499   0.00000   0.00000   0.34317
  11        7PZ        -0.11562   0.00000   0.00000   0.00000   0.00000
  12        8PX         0.00000   0.00000   0.74198   4.95924   0.00000
  13        8PY         0.00000   0.74198   0.00000   0.00000   4.95924
  14        8PZ        -2.79266   0.00000   0.00000   0.00000   0.00000
  15        9PX         0.00000   0.00000  -0.29011   2.26204   0.00000
  16        9PY         0.00000  -0.29011   0.00000   0.00000   2.26204
  17        9PZ        -0.48959   0.00000   0.00000   0.00000   0.00000
  18       10D 0        0.02468   0.00000   0.00000   0.00000   0.00000
  19       10D+1        0.00000   0.00000   0.03085   0.00840   0.00000
  20       10D-1        0.00000   0.03085   0.00000   0.00000   0.00840
  21       10D+2       -0.00000   0.00000   0.00000   0.00000   0.00000
  22       10D-2        0.00000   0.00000   0.00000   0.00000   0.00000
  23       11D 0        0.14890   0.00000   0.00000   0.00000   0.00000
  24       11D+1        0.00000   0.00000  -0.03763  -0.27232   0.00000
  25       11D-1        0.00000  -0.03763   0.00000   0.00000  -0.27232
  26       11D+2        0.00000   0.00000   0.00000   0.00000   0.00000
  27       11D-2        0.00000   0.00000   0.00000   0.00000   0.00000
  28       12D 0        1.56306   0.00000   0.00000   0.00000   0.00000
  29       12D+1        0.00000   0.00000   1.04688  -3.12121   0.00000
  30       12D-1        0.00000   1.04688   0.00000   0.00000  -3.12121
  31       12D+2        0.00000   0.00000   0.00000   0.00000   0.00000
  32       12D-2        0.00000   0.00000   0.00000   0.00000   0.00000
  33       13F 0        0.00222   0.00000   0.00000   0.00000   0.00000
  34       13F+1        0.00000   0.00000   0.01001  -0.01368   0.00000
  35       13F-1        0.00000   0.01001   0.00000   0.00000  -0.01368
  36       13F+2        0.00000   0.00000   0.00000   0.00000   0.00000
  37       13F-2        0.00000   0.00000   0.00000   0.00000   0.00000
  38       13F+3        0.00000   0.00000  -0.00000   0.00000   0.00000
  39       13F-3        0.00000   0.00000   0.00000   0.00000  -0.00000
  40       14F 0       -0.11665   0.00000   0.00000   0.00000   0.00000
  41       14F+1        0.00000   0.00000  -0.11190   0.26469   0.00000
  42       14F-1        0.00000  -0.11190   0.00000   0.00000   0.26469
  43       14F+2       -0.00000   0.00000   0.00000   0.00000   0.00000
  44       14F-2        0.00000   0.00000   0.00000   0.00000   0.00000
  45       14F+3        0.00000   0.00000   0.00000  -0.00000   0.00000
  46       14F-3        0.00000  -0.00000   0.00000   0.00000   0.00000
  47 2   N  1S         -0.02109   0.00000   0.00000   0.00000   0.00000
  48        2S          0.09661   0.00000   0.00000   0.00000   0.00000
  49        3S          0.02408   0.00000   0.00000   0.00000   0.00000
  50        4S         -6.94478   0.00000   0.00000   0.00000   0.00000
  51        5S         -1.94157   0.00000   0.00000   0.00000   0.00000
  52        6PX         0.00000   0.00000  -0.04037  -0.14491   0.00000
  53        6PY         0.00000  -0.04037   0.00000   0.00000  -0.14491
  54        6PZ         0.10776   0.00000   0.00000   0.00000   0.00000
  55        7PX         0.00000   0.00000  -0.07499  -0.34317   0.00000
  56        7PY         0.00000  -0.07499   0.00000   0.00000  -0.34317
  57        7PZ        -0.11562   0.00000   0.00000   0.00000   0.00000
  58        8PX         0.00000   0.00000   0.74198  -4.95924   0.00000
  59        8PY         0.00000   0.74198   0.00000   0.00000  -4.95924
  60        8PZ        -2.79266   0.00000   0.00000   0.00000   0.00000
  61        9PX         0.00000   0.00000  -0.29011  -2.26204   0.00000
  62        9PY         0.00000  -0.29011   0.00000   0.00000  -2.26204
  63        9PZ        -0.48959   0.00000   0.00000   0.00000   0.00000
  64       10D 0       -0.02468   0.00000   0.00000   0.00000   0.00000
  65       10D+1        0.00000   0.00000  -0.03085   0.00840   0.00000
  66       10D-1        0.00000  -0.03085   0.00000   0.00000   0.00840
  67       10D+2        0.00000   0.00000   0.00000   0.00000   0.00000
  68       10D-2        0.00000   0.00000   0.00000   0.00000   0.00000
  69       11D 0       -0.14890   0.00000   0.00000   0.00000   0.00000
  70       11D+1        0.00000   0.00000   0.03763  -0.27232   0.00000
  71       11D-1        0.00000   0.03763   0.00000   0.00000  -0.27232
  72       11D+2       -0.00000   0.00000   0.00000   0.00000   0.00000
  73       11D-2        0.00000   0.00000   0.00000   0.00000   0.00000
  74       12D 0       -1.56306   0.00000   0.00000   0.00000   0.00000
  75       12D+1        0.00000   0.00000  -1.04688  -3.12121   0.00000
  76       12D-1        0.00000  -1.04688   0.00000   0.00000  -3.12121
  77       12D+2       -0.00000   0.00000   0.00000   0.00000   0.00000
  78       12D-2        0.00000   0.00000   0.00000   0.00000   0.00000
  79       13F 0        0.00222   0.00000   0.00000   0.00000   0.00000
  80       13F+1        0.00000   0.00000   0.01001   0.01368   0.00000
  81       13F-1        0.00000   0.01001   0.00000   0.00000   0.01368
  82       13F+2        0.00000   0.00000   0.00000   0.00000   0.00000
  83       13F-2        0.00000   0.00000   0.00000   0.00000   0.00000
  84       13F+3        0.00000   0.00000  -0.00000  -0.00000   0.00000
  85       13F-3        0.00000   0.00000   0.00000   0.00000   0.00000
  86       14F 0       -0.11665   0.00000   0.00000   0.00000   0.00000
  87       14F+1        0.00000   0.00000  -0.11190  -0.26469   0.00000
  88       14F-1        0.00000  -0.11190   0.00000   0.00000  -0.26469
  89       14F+2       -0.00000   0.00000   0.00000   0.00000   0.00000
  90       14F-2        0.00000   0.00000   0.00000   0.00000   0.00000
  91       14F+3        0.00000   0.00000   0.00000   0.00000   0.00000
  92       14F-3        0.00000  -0.00000   0.00000   0.00000  -0.00000
                          26        27        28        29        30
                       (DLTU)--  (DLTU)--  (PIU)--V  (PIU)--V  (SGG)--V
     Eigenvalues --     0.47132   0.47132   0.55491   0.55491   0.60207
   1 1   N  1S          0.00000  -0.00000   0.00000   0.00000   0.08421
   2        2S          0.00000   0.00000   0.00000   0.00000  -0.08952
   3        3S          0.00000   0.00000   0.00000   0.00000   0.05652
   4        4S          0.00000   0.00000   0.00000   0.00000   2.07789
   5        5S          0.00000   0.00000   0.00000   0.00000  -1.07795
   6        6PX         0.00000   0.00000   0.00000  -0.16726   0.00000
   7        6PY         0.00000   0.00000  -0.16726   0.00000   0.00000
   8        6PZ         0.00000  -0.00000   0.00000   0.00000  -0.14212
   9        7PX         0.00000   0.00000   0.00000  -0.52720   0.00000
  10        7PY         0.00000   0.00000  -0.52720   0.00000   0.00000
  11        7PZ         0.00000  -0.00000   0.00000   0.00000  -0.55401
  12        8PX         0.00000   0.00000   0.00000   0.72476   0.00000
  13        8PY         0.00000   0.00000   0.72476   0.00000   0.00000
  14        8PZ         0.00000  -0.00000   0.00000   0.00000   2.46512
  15        9PX         0.00000   0.00000   0.00000  -0.32548   0.00000
  16        9PY         0.00000   0.00000  -0.32548   0.00000   0.00000
  17        9PZ         0.00000  -0.00000   0.00000   0.00000   0.14916
  18       10D 0        0.00000  -0.00000   0.00000   0.00000   0.04089
  19       10D+1        0.00000   0.00000   0.00000   0.00419   0.00000
  20       10D-1        0.00000   0.00000   0.00419   0.00000   0.00000
  21       10D+2        0.00000   0.01716   0.00000   0.00000  -0.00000
  22       10D-2        0.01716   0.00000   0.00000   0.00000   0.00000
  23       11D 0        0.00000   0.00000   0.00000   0.00000  -0.28171
  24       11D+1        0.00000   0.00000   0.00000   0.06560   0.00000
  25       11D-1        0.00000   0.00000   0.06560   0.00000   0.00000
  26       11D+2        0.00000   0.00113   0.00000   0.00000   0.00000
  27       11D-2        0.00113   0.00000   0.00000   0.00000   0.00000
  28       12D 0        0.00000   0.00000   0.00000   0.00000  -0.94422
  29       12D+1        0.00000   0.00000   0.00000  -0.40109   0.00000
  30       12D-1        0.00000   0.00000  -0.40109   0.00000   0.00000
  31       12D+2        0.00000   1.53152   0.00000   0.00000  -0.00000
  32       12D-2        1.53152   0.00000   0.00000   0.00000   0.00000
  33       13F 0        0.00000  -0.00000   0.00000   0.00000   0.00653
  34       13F+1        0.00000   0.00000   0.00000  -0.00266   0.00000
  35       13F-1        0.00000   0.00000  -0.00266   0.00000   0.00000
  36       13F+2        0.00000   0.02213   0.00000   0.00000  -0.00000
  37       13F-2        0.02213   0.00000   0.00000   0.00000   0.00000
  38       13F+3        0.00000   0.00000   0.00000   0.00000   0.00000
  39       13F-3        0.00000   0.00000  -0.00000   0.00000   0.00000
  40       14F 0        0.00000  -0.00000   0.00000   0.00000   0.21255
  41       14F+1        0.00000   0.00000   0.00000   0.01557   0.00000
  42       14F-1        0.00000   0.00000   0.01557   0.00000   0.00000
  43       14F+2        0.00000  -0.16730   0.00000   0.00000  -0.00000
  44       14F-2       -0.16730   0.00000   0.00000   0.00000   0.00000
  45       14F+3        0.00000   0.00000   0.00000  -0.00000   0.00000
  46       14F-3        0.00000   0.00000   0.00000   0.00000   0.00000
  47 2   N  1S          0.00000   0.00000   0.00000   0.00000   0.08421
  48        2S          0.00000  -0.00000   0.00000   0.00000  -0.08952
  49        3S          0.00000  -0.00000   0.00000   0.00000   0.05652
  50        4S          0.00000  -0.00000   0.00000   0.00000   2.07789
  51        5S          0.00000  -0.00000   0.00000   0.00000  -1.07795
  52        6PX         0.00000   0.00000   0.00000  -0.16726   0.00000
  53        6PY         0.00000   0.00000  -0.16726   0.00000   0.00000
  54        6PZ         0.00000  -0.00000   0.00000   0.00000   0.14212
  55        7PX         0.00000   0.00000   0.00000  -0.52720   0.00000
  56        7PY         0.00000   0.00000  -0.52720   0.00000   0.00000
  57        7PZ         0.00000  -0.00000   0.00000   0.00000   0.55401
  58        8PX         0.00000   0.00000   0.00000   0.72476   0.00000
  59        8PY         0.00000   0.00000   0.72476   0.00000   0.00000
  60        8PZ         0.00000  -0.00000   0.00000   0.00000  -2.46512
  61        9PX         0.00000   0.00000   0.00000  -0.32548   0.00000
  62        9PY         0.00000   0.00000  -0.32548   0.00000   0.00000
  63        9PZ         0.00000  -0.00000   0.00000   0.00000  -0.14916
  64       10D 0        0.00000   0.00000   0.00000   0.00000   0.04089
  65       10D+1        0.00000   0.00000   0.00000  -0.00419   0.00000
  66       10D-1        0.00000   0.00000  -0.00419   0.00000   0.00000
  67       10D+2        0.00000  -0.01716   0.00000   0.00000  -0.00000
  68       10D-2       -0.01716   0.00000   0.00000   0.00000   0.00000
  69       11D 0        0.00000  -0.00000   0.00000   0.00000  -0.28171
  70       11D+1        0.00000   0.00000   0.00000  -0.06560   0.00000
  71       11D-1        0.00000   0.00000  -0.06560   0.00000   0.00000
  72       11D+2        0.00000  -0.00113   0.00000   0.00000   0.00000
  73       11D-2       -0.00113   0.00000   0.00000   0.00000   0.00000
  74       12D 0        0.00000  -0.00000   0.00000   0.00000  -0.94422
  75       12D+1        0.00000   0.00000   0.00000   0.40109   0.00000
  76       12D-1        0.00000   0.00000   0.40109   0.00000   0.00000
  77       12D+2        0.00000  -1.53152   0.00000   0.00000  -0.00000
  78       12D-2       -1.53152   0.00000   0.00000   0.00000   0.00000
  79       13F 0        0.00000  -0.00000   0.00000   0.00000  -0.00653
  80       13F+1        0.00000   0.00000   0.00000  -0.00266   0.00000
  81       13F-1        0.00000   0.00000  -0.00266   0.00000   0.00000
  82       13F+2        0.00000   0.02213   0.00000   0.00000   0.00000
  83       13F-2        0.02213   0.00000   0.00000   0.00000   0.00000
  84       13F+3        0.00000   0.00000   0.00000   0.00000   0.00000
  85       13F-3        0.00000   0.00000  -0.00000   0.00000   0.00000
  86       14F 0        0.00000  -0.00000   0.00000   0.00000  -0.21255
  87       14F+1        0.00000   0.00000   0.00000   0.01557   0.00000
  88       14F-1        0.00000   0.00000   0.01557   0.00000   0.00000
  89       14F+2        0.00000  -0.16730   0.00000   0.00000   0.00000
  90       14F-2       -0.16730   0.00000   0.00000   0.00000   0.00000
  91       14F+3        0.00000   0.00000   0.00000  -0.00000   0.00000
  92       14F-3        0.00000   0.00000   0.00000   0.00000   0.00000
                          31        32        33        34        35
                       (SGU)--V  (SGU)--V  (PIG)--V  (PIG)--V  (SGG)--V
     Eigenvalues --     0.61770   0.82256   0.88008   0.88008   1.03011
   1 1   N  1S         -0.09179   0.04693   0.00000   0.00000  -0.02529
   2        2S          0.29378  -0.03772   0.00000   0.00000   0.57024
   3        3S          0.06036  -0.05316   0.00000   0.00000   0.14186
   4        4S         25.56179   5.44486   0.00000   0.00000   0.87492
   5        5S         23.79459   8.91627   0.00000   0.00000  -0.47044
   6        6PX         0.00000   0.00000  -0.20301   0.00000   0.00000
   7        6PY         0.00000   0.00000   0.00000  -0.20301   0.00000
   8        6PZ        -0.03622   0.35291   0.00000   0.00000  -0.05704
   9        7PX         0.00000   0.00000  -0.16807   0.00000   0.00000
  10        7PY         0.00000   0.00000   0.00000  -0.16807   0.00000
  11        7PZ        -0.82349   0.32405   0.00000   0.00000  -0.16483
  12        8PX         0.00000   0.00000   9.43270   0.00000   0.00000
  13        8PY         0.00000   0.00000   0.00000   9.43270   0.00000
  14        8PZ       -13.79393  -3.84591   0.00000   0.00000   1.74212
  15        9PX         0.00000   0.00000   0.89040   0.00000   0.00000
  16        9PY         0.00000   0.00000   0.00000   0.89040   0.00000
  17        9PZ        -4.44922  -1.58598   0.00000   0.00000   0.90268
  18       10D 0       -0.01613   0.03292   0.00000   0.00000   0.01681
  19       10D+1        0.00000   0.00000   0.04058   0.00000   0.00000
  20       10D-1        0.00000   0.00000   0.00000   0.04058   0.00000
  21       10D+2       -0.00000  -0.00000   0.00000   0.00000  -0.00000
  22       10D-2        0.00000   0.00000   0.00000   0.00000   0.00000
  23       11D 0        0.50746   0.48261   0.00000   0.00000   0.34567
  24       11D+1        0.00000   0.00000  -0.85102   0.00000   0.00000
  25       11D-1        0.00000   0.00000   0.00000  -0.85102   0.00000
  26       11D+2        0.00000   0.00000   0.00000   0.00000   0.00000
  27       11D-2        0.00000   0.00000   0.00000   0.00000   0.00000
  28       12D 0        2.69224   0.05645   0.00000   0.00000  -1.49423
  29       12D+1        0.00000   0.00000  -3.95208   0.00000   0.00000
  30       12D-1        0.00000   0.00000   0.00000  -3.95208   0.00000
  31       12D+2       -0.00000  -0.00000   0.00000   0.00000  -0.00000
  32       12D-2        0.00000   0.00000   0.00000   0.00000   0.00000
  33       13F 0       -0.03179  -0.04452   0.00000   0.00000   0.00459
  34       13F+1        0.00000   0.00000   0.03387   0.00000   0.00000
  35       13F-1        0.00000   0.00000   0.00000   0.03387   0.00000
  36       13F+2        0.00000   0.00000   0.00000   0.00000  -0.00000
  37       13F-2        0.00000   0.00000   0.00000   0.00000   0.00000
  38       13F+3        0.00000   0.00000   0.00000   0.00000   0.00000
  39       13F-3        0.00000   0.00000   0.00000  -0.00000   0.00000
  40       14F 0       -0.09982   0.11991   0.00000   0.00000  -0.19428
  41       14F+1        0.00000   0.00000   0.47055   0.00000   0.00000
  42       14F-1        0.00000   0.00000   0.00000   0.47055   0.00000
  43       14F+2       -0.00000  -0.00000   0.00000   0.00000   0.00000
  44       14F-2        0.00000   0.00000   0.00000   0.00000   0.00000
  45       14F+3        0.00000   0.00000  -0.00000   0.00000   0.00000
  46       14F-3        0.00000   0.00000   0.00000   0.00000   0.00000
  47 2   N  1S          0.09179  -0.04693   0.00000   0.00000  -0.02529
  48        2S         -0.29378   0.03772   0.00000   0.00000   0.57024
  49        3S         -0.06036   0.05316   0.00000   0.00000   0.14186
  50        4S        -25.56179  -5.44486   0.00000   0.00000   0.87492
  51        5S        -23.79459  -8.91627   0.00000   0.00000  -0.47044
  52        6PX         0.00000   0.00000   0.20301   0.00000   0.00000
  53        6PY         0.00000   0.00000   0.00000   0.20301   0.00000
  54        6PZ        -0.03622   0.35291   0.00000   0.00000   0.05704
  55        7PX         0.00000   0.00000   0.16807   0.00000   0.00000
  56        7PY         0.00000   0.00000   0.00000   0.16807   0.00000
  57        7PZ        -0.82349   0.32405   0.00000   0.00000   0.16483
  58        8PX         0.00000   0.00000  -9.43270   0.00000   0.00000
  59        8PY         0.00000   0.00000   0.00000  -9.43270   0.00000
  60        8PZ       -13.79393  -3.84591   0.00000   0.00000  -1.74212
  61        9PX         0.00000   0.00000  -0.89040   0.00000   0.00000
  62        9PY         0.00000   0.00000   0.00000  -0.89040   0.00000
  63        9PZ        -4.44922  -1.58598   0.00000   0.00000  -0.90268
  64       10D 0        0.01613  -0.03292   0.00000   0.00000   0.01681
  65       10D+1        0.00000   0.00000   0.04058   0.00000   0.00000
  66       10D-1        0.00000   0.00000   0.00000   0.04058   0.00000
  67       10D+2        0.00000   0.00000   0.00000   0.00000  -0.00000
  68       10D-2        0.00000   0.00000   0.00000   0.00000   0.00000
  69       11D 0       -0.50746  -0.48261   0.00000   0.00000   0.34567
  70       11D+1        0.00000   0.00000  -0.85102   0.00000   0.00000
  71       11D-1        0.00000   0.00000   0.00000  -0.85102   0.00000
  72       11D+2       -0.00000  -0.00000   0.00000   0.00000   0.00000
  73       11D-2        0.00000   0.00000   0.00000   0.00000   0.00000
  74       12D 0       -2.69224  -0.05645   0.00000   0.00000  -1.49423
  75       12D+1        0.00000   0.00000  -3.95208   0.00000   0.00000
  76       12D-1        0.00000   0.00000   0.00000  -3.95208   0.00000
  77       12D+2        0.00000   0.00000   0.00000   0.00000  -0.00000
  78       12D-2        0.00000   0.00000   0.00000   0.00000   0.00000
  79       13F 0       -0.03179  -0.04452   0.00000   0.00000  -0.00459
  80       13F+1        0.00000   0.00000  -0.03387   0.00000   0.00000
  81       13F-1        0.00000   0.00000   0.00000  -0.03387   0.00000
  82       13F+2        0.00000   0.00000   0.00000   0.00000   0.00000
  83       13F-2        0.00000   0.00000   0.00000   0.00000   0.00000
  84       13F+3        0.00000   0.00000  -0.00000   0.00000   0.00000
  85       13F-3        0.00000   0.00000   0.00000   0.00000   0.00000
  86       14F 0       -0.09982   0.11991   0.00000   0.00000   0.19428
  87       14F+1        0.00000   0.00000  -0.47055   0.00000   0.00000
  88       14F-1        0.00000   0.00000   0.00000  -0.47055   0.00000
  89       14F+2       -0.00000  -0.00000   0.00000   0.00000  -0.00000
  90       14F-2        0.00000   0.00000   0.00000   0.00000   0.00000
  91       14F+3        0.00000   0.00000   0.00000   0.00000   0.00000
  92       14F-3        0.00000   0.00000   0.00000  -0.00000   0.00000
                          36        37        38        39        40
                       (DLTG)--  (DLTG)--  (PHIU)--  (PHIU)--  (PIU)--V
     Eigenvalues --     1.12461   1.12461   1.17573   1.17573   1.24774
   1 1   N  1S          0.00000   0.00000   0.00000   0.00000   0.00000
   2        2S          0.00000  -0.00000   0.00000   0.00000   0.00000
   3        3S          0.00000  -0.00000   0.00000   0.00000   0.00000
   4        4S          0.00000  -0.00000   0.00000   0.00000   0.00000
   5        5S          0.00000   0.00000   0.00000   0.00000   0.00000
   6        6PX         0.00000   0.00000   0.00000   0.00000  -0.07389
   7        6PY         0.00000   0.00000  -0.00000   0.00000   0.00000
   8        6PZ         0.00000   0.00000   0.00000   0.00000   0.00000
   9        7PX         0.00000   0.00000   0.00000  -0.00000   0.02476
  10        7PY         0.00000   0.00000   0.00000   0.00000   0.00000
  11        7PZ         0.00000   0.00000   0.00000   0.00000   0.00000
  12        8PX         0.00000   0.00000   0.00000  -0.00000   0.29080
  13        8PY         0.00000   0.00000   0.00000   0.00000   0.00000
  14        8PZ         0.00000  -0.00000   0.00000   0.00000   0.00000
  15        9PX         0.00000   0.00000   0.00000   0.00000  -0.08742
  16        9PY         0.00000   0.00000  -0.00000   0.00000   0.00000
  17        9PZ         0.00000  -0.00000   0.00000   0.00000   0.00000
  18       10D 0        0.00000  -0.00000   0.00000   0.00000   0.00000
  19       10D+1        0.00000   0.00000   0.00000   0.00000  -0.03197
  20       10D-1        0.00000   0.00000  -0.00000   0.00000   0.00000
  21       10D+2        0.00000   0.01426   0.00000   0.00000   0.00000
  22       10D-2        0.01426   0.00000   0.00000   0.00000   0.00000
  23       11D 0        0.00000   0.00000   0.00000   0.00000   0.00000
  24       11D+1        0.00000   0.00000   0.00000   0.00000  -0.69975
  25       11D-1        0.00000   0.00000  -0.00000   0.00000   0.00000
  26       11D+2        0.00000   0.65935   0.00000   0.00000   0.00000
  27       11D-2        0.65935   0.00000   0.00000   0.00000   0.00000
  28       12D 0        0.00000   0.00000   0.00000   0.00000   0.00000
  29       12D+1        0.00000   0.00000   0.00000  -0.00000   0.85781
  30       12D-1        0.00000   0.00000   0.00000   0.00000   0.00000
  31       12D+2        0.00000  -0.39433   0.00000   0.00000   0.00000
  32       12D-2       -0.39433   0.00000   0.00000   0.00000   0.00000
  33       13F 0        0.00000  -0.00000   0.00000   0.00000   0.00000
  34       13F+1        0.00000   0.00000   0.00000  -0.00000   0.03305
  35       13F-1        0.00000   0.00000   0.00000   0.00000   0.00000
  36       13F+2        0.00000   0.01235   0.00000   0.00000   0.00000
  37       13F-2        0.01235   0.00000   0.00000   0.00000   0.00000
  38       13F+3        0.00000   0.00000   0.00000  -0.06334  -0.00000
  39       13F-3        0.00000   0.00000  -0.06334   0.00000   0.00000
  40       14F 0        0.00000   0.00000   0.00000   0.00000   0.00000
  41       14F+1        0.00000   0.00000   0.00000   0.00000  -0.47443
  42       14F-1        0.00000   0.00000  -0.00000   0.00000   0.00000
  43       14F+2        0.00000  -0.17558   0.00000   0.00000   0.00000
  44       14F-2       -0.17558   0.00000   0.00000   0.00000   0.00000
  45       14F+3        0.00000   0.00000   0.00000   0.61301   0.00000
  46       14F-3        0.00000   0.00000   0.61301   0.00000   0.00000
  47 2   N  1S          0.00000   0.00000   0.00000   0.00000   0.00000
  48        2S          0.00000  -0.00000   0.00000   0.00000   0.00000
  49        3S          0.00000  -0.00000   0.00000   0.00000   0.00000
  50        4S          0.00000  -0.00000   0.00000   0.00000   0.00000
  51        5S          0.00000   0.00000   0.00000   0.00000   0.00000
  52        6PX         0.00000   0.00000   0.00000   0.00000  -0.07389
  53        6PY         0.00000   0.00000  -0.00000   0.00000   0.00000
  54        6PZ         0.00000  -0.00000   0.00000   0.00000   0.00000
  55        7PX         0.00000   0.00000   0.00000  -0.00000   0.02476
  56        7PY         0.00000   0.00000   0.00000   0.00000   0.00000
  57        7PZ         0.00000  -0.00000   0.00000   0.00000   0.00000
  58        8PX         0.00000   0.00000   0.00000  -0.00000   0.29080
  59        8PY         0.00000   0.00000   0.00000   0.00000   0.00000
  60        8PZ         0.00000   0.00000   0.00000   0.00000   0.00000
  61        9PX         0.00000   0.00000   0.00000   0.00000  -0.08742
  62        9PY         0.00000   0.00000  -0.00000   0.00000   0.00000
  63        9PZ         0.00000   0.00000   0.00000   0.00000   0.00000
  64       10D 0        0.00000  -0.00000   0.00000   0.00000   0.00000
  65       10D+1        0.00000   0.00000   0.00000  -0.00000   0.03197
  66       10D-1        0.00000   0.00000   0.00000   0.00000   0.00000
  67       10D+2        0.00000   0.01426   0.00000   0.00000   0.00000
  68       10D-2        0.01426   0.00000   0.00000   0.00000   0.00000
  69       11D 0        0.00000   0.00000   0.00000   0.00000   0.00000
  70       11D+1        0.00000   0.00000   0.00000  -0.00000   0.69975
  71       11D-1        0.00000   0.00000   0.00000   0.00000   0.00000
  72       11D+2        0.00000   0.65935   0.00000   0.00000   0.00000
  73       11D-2        0.65935   0.00000   0.00000   0.00000   0.00000
  74       12D 0        0.00000   0.00000   0.00000   0.00000   0.00000
  75       12D+1        0.00000   0.00000   0.00000   0.00000  -0.85781
  76       12D-1        0.00000   0.00000  -0.00000   0.00000   0.00000
  77       12D+2        0.00000  -0.39433   0.00000   0.00000   0.00000
  78       12D-2       -0.39433   0.00000   0.00000   0.00000   0.00000
  79       13F 0        0.00000   0.00000   0.00000   0.00000   0.00000
  80       13F+1        0.00000   0.00000   0.00000  -0.00000   0.03305
  81       13F-1        0.00000   0.00000   0.00000   0.00000   0.00000
  82       13F+2        0.00000  -0.01235   0.00000   0.00000   0.00000
  83       13F-2       -0.01235   0.00000   0.00000   0.00000   0.00000
  84       13F+3        0.00000   0.00000   0.00000  -0.06334  -0.00000
  85       13F-3        0.00000   0.00000  -0.06334   0.00000   0.00000
  86       14F 0        0.00000  -0.00000   0.00000   0.00000   0.00000
  87       14F+1        0.00000   0.00000   0.00000   0.00000  -0.47443
  88       14F-1        0.00000   0.00000  -0.00000   0.00000   0.00000
  89       14F+2        0.00000   0.17558   0.00000   0.00000   0.00000
  90       14F-2        0.17558   0.00000   0.00000   0.00000   0.00000
  91       14F+3        0.00000   0.00000   0.00000   0.61301   0.00000
  92       14F-3        0.00000   0.00000   0.61301   0.00000   0.00000
                          41        42        43        44        45
                       (PIU)--V  (DLTU)--  (DLTU)--  (SGU)--V  (SGG)--V
     Eigenvalues --     1.24774   1.35856   1.35856   1.40287   1.47878
   1 1   N  1S          0.00000   0.00000   0.00000   0.10618  -0.01553
   2        2S          0.00000  -0.00000   0.00000  -0.47233  -0.22180
   3        3S          0.00000  -0.00000   0.00000  -0.27458  -0.14260
   4        4S          0.00000   0.00000   0.00000  38.84332  -0.49316
   5        5S          0.00000   0.00000   0.00000  14.16639   0.25081
   6        6PX         0.00000   0.00000   0.00000   0.00000   0.00000
   7        6PY        -0.07389   0.00000   0.00000   0.00000   0.00000
   8        6PZ         0.00000   0.00000   0.00000   0.16400   0.01494
   9        7PX         0.00000   0.00000   0.00000   0.00000   0.00000
  10        7PY         0.02476   0.00000   0.00000   0.00000   0.00000
  11        7PZ         0.00000  -0.00000   0.00000  -1.92397  -0.15117
  12        8PX         0.00000   0.00000   0.00000   0.00000   0.00000
  13        8PY         0.29080   0.00000   0.00000   0.00000   0.00000
  14        8PZ         0.00000  -0.00000   0.00000 -18.01656  -0.64294
  15        9PX         0.00000   0.00000   0.00000   0.00000   0.00000
  16        9PY        -0.08742   0.00000   0.00000   0.00000   0.00000
  17        9PZ         0.00000  -0.00000   0.00000  -2.54331  -0.56656
  18       10D 0        0.00000   0.00000   0.00000   0.04252  -0.00917
  19       10D+1        0.00000   0.00000   0.00000   0.00000   0.00000
  20       10D-1       -0.03197   0.00000   0.00000   0.00000   0.00000
  21       10D+2        0.00000  -0.03125   0.00000  -0.00000  -0.00000
  22       10D-2        0.00000   0.00000  -0.03125   0.00000   0.00000
  23       11D 0        0.00000   0.00000   0.00000   1.22975  -0.55738
  24       11D+1        0.00000   0.00000   0.00000   0.00000   0.00000
  25       11D-1       -0.69975   0.00000   0.00000   0.00000   0.00000
  26       11D+2        0.00000  -0.34553   0.00000   0.00000   0.00000
  27       11D-2        0.00000   0.00000  -0.34553   0.00000   0.00000
  28       12D 0        0.00000   0.00000   0.00000   3.44408   0.77207
  29       12D+1        0.00000   0.00000   0.00000   0.00000   0.00000
  30       12D-1        0.85781   0.00000   0.00000   0.00000   0.00000
  31       12D+2        0.00000   1.20345   0.00000  -0.00000  -0.00000
  32       12D-2        0.00000   0.00000   1.20345   0.00000   0.00000
  33       13F 0        0.00000  -0.00000   0.00000  -0.07338   0.06304
  34       13F+1        0.00000   0.00000   0.00000   0.00000   0.00000
  35       13F-1        0.03305   0.00000   0.00000   0.00000   0.00000
  36       13F+2        0.00000   0.05894   0.00000  -0.00000  -0.00000
  37       13F-2        0.00000   0.00000   0.05894   0.00000   0.00000
  38       13F+3        0.00000   0.00000   0.00000   0.00000   0.00000
  39       13F-3        0.00000   0.00000   0.00000   0.00000   0.00000
  40       14F 0        0.00000  -0.00000   0.00000  -0.71005  -0.62233
  41       14F+1        0.00000   0.00000   0.00000   0.00000   0.00000
  42       14F-1       -0.47443   0.00000   0.00000   0.00000   0.00000
  43       14F+2        0.00000  -0.88960   0.00000   0.00000   0.00000
  44       14F-2        0.00000   0.00000  -0.88960   0.00000   0.00000
  45       14F+3        0.00000   0.00000   0.00000   0.00000   0.00000
  46       14F-3       -0.00000   0.00000   0.00000   0.00000   0.00000
  47 2   N  1S          0.00000  -0.00000   0.00000  -0.10618  -0.01553
  48        2S          0.00000   0.00000   0.00000   0.47233  -0.22180
  49        3S          0.00000   0.00000   0.00000   0.27458  -0.14260
  50        4S          0.00000  -0.00000   0.00000 -38.84332  -0.49316
  51        5S          0.00000  -0.00000   0.00000 -14.16639   0.25081
  52        6PX         0.00000   0.00000   0.00000   0.00000   0.00000
[...]
 Traceless Quadrupole moment (field-independent basis, Debye-Ang):
   XX=              0.5007   YY=              0.5007   ZZ=             -1.0014
   XY=              0.0000   XZ=              0.0000   YZ=              0.0000
 Octapole moment (field-independent basis, Debye-Ang**2):
  XXX=             -0.0000  YYY=              0.0000  ZZZ=             -0.0000  XYY=             -0.0000
  XXY=             -0.0000  XXZ=             -0.0000  XZZ=             -0.0000  YZZ=              0.0000
  YYZ=              0.0000  XYZ=              0.0000
 Hexadecapole moment (field-independent basis, Debye-Ang**3):
 XXXX=             -9.2496 YYYY=             -9.2496 ZZZZ=            -32.1321 XXXY=              0.0000
 XXXZ=              0.0000 YYYX=              0.0000 YYYZ=              0.0000 ZZZX=              0.0000
 ZZZY=             -0.0000 XXYY=             -3.0832 XXZZ=             -6.4870 YYZZ=             -6.4870
 XXYZ=              0.0000 YYXZ=              0.0000 ZZXY=              0.0000
 N-N= 2.376334194396D+01 E-N=-3.037712720719D+02  KE= 1.089554186658D+02
 Symmetry AG   KE= 5.330399125239D+01
 Symmetry B1G  KE= 5.400974363000D-34
 Symmetry B2G  KE=-3.906701174938D-19
 Symmetry B3G  KE=-1.311722831487D-18
 Symmetry AU   KE= 2.666086033155D-32
 Symmetry B1U  KE= 4.872315673351D+01
 Symmetry B2U  KE= 3.464135339955D+00
 Symmetry B3U  KE= 3.464135339955D+00
 There are a total of       45624 grid points.
 ElSum from          density=       13.9999999149
 ElSum from atomic densities=       13.9999999043

 Hirshfeld populations at iteration   1 (CX, CA, CB, DipXYZ):
               1          2          3          4          5          6
     1  N    0.000006   3.500000   3.500000  -0.000000   0.000000  -0.057106
     2  N    0.000006   3.500000   3.500000  -0.000000  -0.000000   0.057106
       Tot   0.000012   7.000000   7.000000  -0.000000  -0.000000  -0.000000

 Dip from Atomic Chgs              0.000000   0.000000   0.000000
         Total Dipole             -0.000000  -0.000000  -0.000000

 Hirshfeld charges, spin densities, dipoles, and CM5 charges using IRadAn=      5:
              Q-H        S-H        Dx         Dy         Dz        Q-CM5   
     1  N    0.000000   0.000000  -0.000000   0.000000  -0.057106   0.000000
     2  N    0.000000   0.000000  -0.000000  -0.000000   0.057106   0.000000
       Tot   0.000000   0.000000  -0.000000  -0.000000  -0.000000   0.000000
 Hirshfeld charges with hydrogens summed into heavy atoms:
              Q-H       Q-CM5   
     1  N    0.000000   0.000000
     2  N    0.000000   0.000000
 
 EQQ= 0.000000000000E+00 EQD= 0.000000000000E+00 EDD=-0.371956907957E-03
 EQQ+QD+DD=-0.371956907957E-03
 
 Orbital energies and kinetic energies (alpha):
                                 1                 2
   1 (SGG)--O                -14.426306         21.962280
   2 (SGU)--O                -14.424414         21.992381
   3 (SGG)--O                 -1.137445          2.649237
   4 (SGU)--O                 -0.559170          2.369197
   5 (PIU)--O                 -0.476208          1.732068
   6 (PIU)--O                 -0.476208          1.732068
   7 (SGG)--O                 -0.440189          2.040479
   8 (PIG)--V                 -0.034423          1.900176
   9 (PIG)--V                 -0.034423          1.900176
  10 (SGU)--V                  0.045910          0.174892
  11 (SGG)--V                  0.048588          0.405043
  12 (PIU)--V                  0.066145          0.251323
  13 (PIU)--V                  0.066145          0.251323
  14 (SGG)--V                  0.106385          0.209883
  15 (PIG)--V                  0.128187          0.444636
  16 (PIG)--V                  0.128187          0.444636
  17 (SGU)--V                  0.215314          0.529241
  18 (DLTG)--V                 0.291438          0.508483
  19 (DLTG)--V                 0.291438          0.508483
  20 (SGG)--V                  0.370871          0.721897
  21 (SGU)--V                  0.411629          0.832800
  22 (PIU)--V                  0.450874          0.672062
  23 (PIU)--V                  0.450874          0.672062
  24 (PIG)--V                  0.457599          1.002823
  25 (PIG)--V                  0.457599          1.002823
  26 (DLTU)--V                 0.471361          0.618998
  27 (DLTU)--V                 0.471361          0.618998
  28 (PIU)--V                  0.554868          1.422757
  29 (PIU)--V                  0.554868          1.422757
  30 (SGG)--V                  0.601999          1.648115
  31 (SGU)--V                  0.618001          1.686825
  32 (SGU)--V                  0.823698          3.324796
  33 (PIG)--V                  0.880302          1.662817
  34 (PIG)--V                  0.880302          1.662817
  35 (SGG)--V                  1.030275          1.946961
  36 (DLTG)--V                 1.124577          1.810570
  37 (DLTG)--V                 1.124577          1.810570
  38 (PHIU)--V                 1.175752          1.496031
  39 (PHIU)--V                 1.175752          1.496031
  40 (PIU)--V                  1.247928          2.018105
  41 (PIU)--V                  1.247928          2.018105
  42 (DLTU)--V                 1.358511          1.849777
  43 (DLTU)--V                 1.358511          1.849777
  44 (SGU)--V                  1.403052          2.948825
  45 (SGG)--V                  1.479036          1.965463
  46 (DLTG)--V                 1.495184          1.841780
  47 (DLTG)--V                 1.495184          1.841780
  48 (PIG)--V                  1.516823          1.916754
  49 (PIG)--V                  1.516823          1.916754
  50 (PHIG)--V                 1.527114          1.816809
  51 (PHIG)--V                 1.527114          1.816809
  52 (SGU)--V                  1.758534          2.795316
  53 (PIU)--V                  1.930545          2.556030
  54 (PIU)--V                  1.930545          2.556030
  55 (DLTU)--V                 2.083782          2.617790
  56 (DLTU)--V                 2.083782          2.617790
  57 (PIG)--V                  2.155563          3.667626
  58 (PIG)--V                  2.155563          3.667626
  59 (SGU)--V                  2.457672          4.825226
  60 (SGG)--V                  2.474448          5.207250
  61 (PIU)--V                  2.865185          7.060003
  62 (PIU)--V                  2.865185          7.060003
  63 (SGG)--V                  3.621487          6.666569
  64 (PIG)--V                  3.882686          6.813034
  65 (PIG)--V                  3.882686          6.813034
  66 (DLTG)--V                 4.018188          5.385348
  67 (DLTG)--V                 4.018188          5.385348
  68 (SGU)--V                  4.085725          8.820103
  69 (PIU)--V                  4.131721          6.129350
  70 (PIU)--V                  4.131721          6.129350
  71 (SGG)--V                  4.134353          6.888990
  72 (PHIU)--V                 4.290932          5.422901
  73 (PHIU)--V                 4.290932          5.422901
  74 (DLTG)--V                 4.657040          6.754819
  75 (DLTG)--V                 4.657040          6.754818
  76 (PHIG)--V                 4.671768          5.827416
  77 (PHIG)--V                 4.671768          5.827416
  78 (DLTU)--V                 4.744050          6.714005
  79 (DLTU)--V                 4.744050          6.714005
  80 (SGU)--V                  4.802010          6.286955
  81 (PIG)--V                  4.980774          7.716632
  82 (PIG)--V                  4.980774          7.716632
  83 (PIU)--V                  5.172974          6.913045
  84 (PIU)--V                  5.172974          6.913045
  85 (DLTU)--V                 5.348852          6.847071
  86 (DLTU)--V                 5.348852          6.847071
  87 (SGG)--V                  6.254862         10.587510
  88 (SGU)--V                  6.301301         10.390929
  89 (PIG)--V                  6.450936          8.489088
  90 (PIG)--V                  6.450936          8.489088
  91 (SGG)--V                 10.303590         28.645357
  92 (SGU)--V                 18.669179         46.041051
 Total kinetic energy from orbitals= 1.089554186658D+02
  Exact polarizability:  10.324   0.000  10.324  -0.000  -0.000  15.075
 Approx polarizability:  13.480  -0.000  13.480  -0.000  -0.000  27.433
 No NMR shielding tensors so no spin-rotation constants.
 Leave Link  601 at Fri Sep  6 09:54:47 2024, MaxMem=   104857600 cpu:               0.2 elap:               0.2
 (Enter /Users/asuyarger/Applications/G16/g16/l701.exe)
 ... and contract with generalized density number  0.
 Compute integral second derivatives.
 Leave Link  701 at Fri Sep  6 09:54:47 2024, MaxMem=   104857600 cpu:               0.1 elap:               0.1
 (Enter /Users/asuyarger/Applications/G16/g16/l702.exe)
 L702 exits ... SP integral derivatives will be done elsewhere.
 Leave Link  702 at Fri Sep  6 09:54:47 2024, MaxMem=   104857600 cpu:               0.0 elap:               0.0
 (Enter /Users/asuyarger/Applications/G16/g16/l703.exe)
 Integral derivatives from FoFJK, PRISM(SPDF).
 Compute integral second derivatives, UseDBF=F ICtDFT=           0.
 Calling FoFJK, ICntrl=    100127 FMM=F ISym2X=1 I1Cent= 0 IOpClX= 0 NMat=1 NMatS=1 NMatT=0.
 FoFJK:  IHMeth= 1 ICntrl=  100127 DoSepK=F KAlg= 0 I1Cent=           0 FoldK=F
 IRaf=         0 NMat=       1 IRICut=       1 DoRegI=T DoRafI=F ISym2E= 1 IDoP0=0 IntGTp=1.
 FoFCou: FMM=F IPFlag=           0 FMFlag=      100000 FMFlg1=         800
         NFxFlg=           0 DoJE=F BraDBF=F KetDBF=F FulRan=T
         wScrn=  0.000000 ICntrl=    100127 IOpCl=  0 I1Cent=           0 NGrid=           0
         NMat0=    1 NMatS0=      1 NMatT0=    0 NMatD0=    1 NMtDS0=    0 NMtDT0=    0
 Petite list used in FoFCou.
 Leave Link  703 at Fri Sep  6 09:54:49 2024, MaxMem=   104857600 cpu:               2.6 elap:               2.6
 (Enter /Users/asuyarger/Applications/G16/g16/l716.exe)
 Dipole        =-9.86076132D-32-1.15555797D-33 0.00000000D+00
 Polarizability= 1.03238863D+01 2.63677102D-18 1.03238863D+01
                -6.42121744D-16-1.33368118D-30 1.50750542D+01
 HyperPolar    =-1.32296356D-10 8.23323244D-13-4.04203622D-11
                 1.28997035D-11 9.20893734D-11 6.90006773D-12
                 2.61811674D-11-2.86286682D-11 9.42404203D-12
                 1.63624610D-10
 Full mass-weighted force constant matrix:
 Low frequencies ---   -1.5194   -1.5194   -0.0014   -0.0013   -0.0011 2447.3248
 Diagonal vibrational polarizability:
        0.0000000       0.0000000       0.0000000
 Diagonal vibrational hyperpolarizability:
       -0.0000000      -0.0000000      -0.0000000
 Harmonic frequencies (cm**-1), IR intensities (KM/Mole), Raman scattering
 activities (A**4/AMU), depolarization ratios for plane and unpolarized
 incident light, reduced masses (AMU), force constants (mDyne/A),
 and normal coordinates:
                      1
                     SGG
 Frequencies --   2447.3248
 Red. masses --     14.0031
 Frc consts  --     49.4148
 IR Inten    --      0.0000
 Raman Activ --     23.9818
 Depolar (P) --      0.0908
 Depolar (U) --      0.1665
  Atom  AN      X      Y      Z
     1   7    -0.00   0.00   0.71
     2   7     0.00   0.00  -0.71

 -------------------
 - Thermochemistry -
 -------------------
 Temperature   298.150 Kelvin.  Pressure   1.00000 Atm.
 Atom     1 has atomic number  7 and mass  14.00307
 Atom     2 has atomic number  7 and mass  14.00307
 Molecular mass:    28.00615 amu.
 Principal axes and moments of inertia in atomic units:
                           1         2         3
     Eigenvalues --    -0.00000  29.76943  29.76943
           X           -0.00000   1.00000  -0.00000
           Y            0.00000   0.00000   1.00000
           Z            1.00000   0.00000  -0.00000
 This molecule is a prolate symmetric top.
 Rotational symmetry number  2.
 Rotational temperature (Kelvin)      2.90949
 Rotational constant (GHZ):          60.623977
 Zero-point vibrational energy      14638.3 (Joules/Mol)
                                    3.49863 (Kcal/Mol)
 Vibrational temperatures:   3521.15
          (Kelvin)
 
 Zero-point correction=                           0.005575 (Hartree/Particle)
 Thermal correction to Energy=                    0.007936
 Thermal correction to Enthalpy=                  0.008880
 Thermal correction to Gibbs Free Energy=        -0.012850
 Sum of electronic and zero-point Energies=           -109.565010
 Sum of electronic and thermal Energies=              -109.562649
 Sum of electronic and thermal Enthalpies=            -109.561705
 Sum of electronic and thermal Free Energies=         -109.583435
 
                     E (Thermal)             CV                S
                      KCal/Mol        Cal/Mol-Kelvin    Cal/Mol-Kelvin
 Total                    4.980              4.970             45.734
 Electronic               0.000              0.000              0.000
 Translational            0.889              2.981             35.924
 Rotational               0.592              1.987              9.810
 Vibrational              3.499              0.002              0.000
                       Q            Log10(Q)             Ln(Q)
 Total Bot       0.813605D+06          5.910414         13.609230
 Total V=0       0.298487D+09          8.474925         19.514236
 Vib (Bot)       0.272579D-02         -2.564508         -5.904998
 Vib (V=0)       0.100001D+01          0.000003          0.000007
 Electronic      0.100000D+01          0.000000          0.000000
 Translational   0.582551D+07          6.765334         15.577757
 Rotational      0.512375D+02          1.709588          3.936471
 ***** Axes restored to original set *****
 -------------------------------------------------------------------
 Center     Atomic                   Forces (Hartrees/Bohr)
 Number     Number              X              Y              Z
 -------------------------------------------------------------------
      1        7           0.000000001    0.000000000   -0.000000000
      2        7          -0.000000001   -0.000000000    0.000000000
 -------------------------------------------------------------------
 Cartesian Forces:  Max     0.000000001 RMS     0.000000001
 Force constants in Cartesian coordinates: 
                1             2             3             4             5 
      1  0.158697D+01
      2  0.000000D+00  0.000000D+00
      3  0.000000D+00  0.000000D+00  0.000000D+00
      4 -0.158697D+01  0.000000D+00  0.000000D+00  0.158697D+01
      5  0.000000D+00  0.000000D+00  0.000000D+00  0.000000D+00  0.000000D+00
      6  0.000000D+00  0.000000D+00  0.000000D+00  0.000000D+00  0.000000D+00
                6 
      6  0.000000D+00
 FormGI is forming the generalized inverse of G from B-inverse, IUseBI=4.
 Force constants in internal coordinates: 
                1 
      1  0.158697D+01
 Leave Link  716 at Fri Sep  6 09:54:49 2024, MaxMem=   104857600 cpu:               0.0 elap:               0.0
 (Enter /Users/asuyarger/Applications/G16/g16/l103.exe)

 GradGradGradGradGradGradGradGradGradGradGradGradGradGradGradGradGradGrad
 Berny optimization.
 Red2BG is reusing G-inverse.
 Internal  Forces:  Max     0.000000001 RMS     0.000000001
 Search for a local minimum.
 Step number   1 out of a maximum of    2
 All quantities printed in internal units (Hartrees-Bohrs-Radians)
 Second derivative matrix not updated -- analytic derivatives used.
 The second derivative matrix:
                          R1
           R1           1.58697
 ITU=  0
     Eigenvalues ---    1.58697
 Angle between quadratic step and forces=  90.00 degrees.
 Linear search not attempted -- first point.
 Iteration  1 RMS(Cart)=  0.00000000 RMS(Int)=  0.00000000
 ITry= 1 IFail=0 DXMaxC= 4.40D-10 DCOld= 1.00D+10 DXMaxT= 3.00D-01 DXLimC= 3.00D+00 Rises=F
 ClnCor:  largest displacement from symmetrization is 2.69D-26 for atom     2.
 Variable       Old X    -DE/DX   Delta X   Delta X   Delta X     New X
                                 (Linear)    (Quad)   (Total)
    R1        2.06200   0.00000   0.00000   0.00000   0.00000   2.06200
         Item               Value     Threshold  Converged?
 Maximum Force            0.000000     0.000450     YES
 RMS     Force            0.000000     0.000300     YES
 Maximum Displacement     0.000000     0.001800     YES
 RMS     Displacement     0.000000     0.001200     YES
 Predicted change in Energy=-6.142162D-19
 Optimization completed.
    -- Stationary point found.
                           ----------------------------
                           !   Optimized Parameters   !
                           ! (Angstroms and Degrees)  !
 --------------------------                            --------------------------
 ! Name  Definition              Value          Derivative Info.                !
 --------------------------------------------------------------------------------
 ! R1    R(1,2)                  1.0912         -DE/DX =    0.0                 !
 --------------------------------------------------------------------------------
 GradGradGradGradGradGradGradGradGradGradGradGradGradGradGradGradGradGrad

 Leave Link  103 at Fri Sep  6 09:54:49 2024, MaxMem=   104857600 cpu:               0.0 elap:               0.0
 (Enter /Users/asuyarger/Applications/G16/g16/l9999.exe)
 Dipole is zero, so no output in dipole orientation.

 ----------------------------------------------------------------------

 Electric dipole moment (input orientation):
 (Debye = 10**-18 statcoulomb cm , SI units = C m)
                  (au)            (Debye)         (10**-30 SI)
   Tot        0.000000D+00      0.000000D+00      0.000000D+00
   x          0.000000D+00      0.000000D+00      0.000000D+00
   y          0.000000D+00      0.000000D+00      0.000000D+00
   z          0.000000D+00      0.000000D+00      0.000000D+00

 Dipole polarizability, Alpha (input orientation).
 (esu units = cm**3 , SI units = C**2 m**2 J**-1)
 Alpha(0;0):
               (au)            (10**-24 esu)      (10**-40 SI)
   iso        0.119076D+02      0.176453D+01      0.196330D+01
   aniso      0.475117D+01      0.704050D+00      0.783362D+00
   xx         0.150751D+02      0.223389D+01      0.248554D+01
   yx         0.000000D+00      0.000000D+00      0.000000D+00
   yy         0.103239D+02      0.152984D+01      0.170218D+01
   zx         0.000000D+00      0.000000D+00      0.000000D+00
   zy         0.000000D+00      0.000000D+00      0.000000D+00
   zz         0.103239D+02      0.152984D+01      0.170218D+01

 ----------------------------------------------------------------------
 1\1\GINC-JEFFSMACSTUDIO\Freq\RB3LYP\Aug-CC-pVTZ\N2\ROOT\06-Sep-2024\0\
 \#P Geom=AllCheck Guess=TCheck SCRF=Check GenChk RB3LYP/Aug-CC-pVTZ Fr
 eq\\N2 Opt Freq DFT B3LPY aug-cc-pVTX Full\\0,1\N,0.632805241,0.526315
 78,0.\N,-0.458357921,0.52631578,0.\\Version=EM64M-G16RevA.03\State=1-S
 GG\HF=-109.5705854\RMSD=6.265e-11\RMSF=8.061e-10\ZeroPoint=0.0055754\T
 hermal=0.007936\Dipole=0.,0.,0.\DipoleDeriv=0.,0.,0.,0.,0.,0.,0.,0.,0.
 ,0.,0.,0.,0.,0.,0.,0.,0.,0.\Polar=15.0750542,0.,10.3238863,0.,0.,10.32
 38863\PolarDeriv=11.3307372,0.,3.6227214,0.,0.,3.6227214,0.,2.304196,0
 .,0.,0.,0.,0.,0.,0.,2.304196,0.,0.,-11.3307372,0.,-3.6227214,0.,0.,-3.
 6227214,0.,-2.304196,0.,0.,0.,0.,0.,0.,0.,-2.304196,0.,0.\HyperPolar=0
 .,0.,0.,0.,0.,0.,0.,0.,0.,0.\Quadrupole=-0.7445146,0.3722573,0.3722573
 ,0.,0.,0.\PG=D*H [C*(N1.N1)]\NImag=0\\1.58696761,0.,-0.00000061,0.,0.,
 -0.00000061,-1.58696761,0.,0.,1.58696761,0.,0.00000061,0.,0.,-0.000000
 61,0.,0.,0.00000061,0.,0.,-0.00000061\\0.,0.,0.,0.,0.,0.\\\@


 The best way to pay for a lovely moment is to enjoy it.
 -- Richard Bach
 Job cpu time:       0 days  0 hours  0 minutes 10.8 seconds.
 Elapsed time:       0 days  0 hours  0 minutes 10.7 seconds.
 File lengths (MBytes):  RWF=     10 Int=      0 D2E=      0 Chk=      2 Scr=      1
 Normal termination of Gaussian 16 at Fri Sep  6 09:54:49 2024.
