 Entering Gaussian System, Link 0=g16
 Input=/Users/asuyarger/Downloads/N2_DFT_uB3LPY_apVTZ_Opt_Freq_Full_NBO.gjf
 Output=/Users/asuyarger/Downloads/N2_DFT_uB3LPY_apVTZ_Opt_Freq_Full_NBO.log
 Initial command:
 /Users/asuyarger/Applications/G16/g16/l1.exe "/Users/asuyarger/Applications/G16/scratch/Gau-88839.inp" -scrdir="/Users/asuyarger/Applications/G16/scratch/"
 Entering Link 1 = /Users/asuyarger/Applications/G16/g16/l1.exe PID=     88840.
  
 Copyright (c) 1988,1990,1992,1993,1995,1998,2003,2009,2016,
            Gaussian, Inc.  All Rights Reserved.
  
 This is part of the Gaussian(R) 16 program.  It is based on
 the Gaussian(R) 09 system (copyright 2009, Gaussian, Inc.),
 the Gaussian(R) 03 system (copyright 2003, Gaussian, Inc.),
 the Gaussian(R) 98 system (copyright 1998, Gaussian, Inc.),
 the Gaussian(R) 94 system (copyright 1995, Gaussian, Inc.),
 the Gaussian 92(TM) system (copyright 1992, Gaussian, Inc.),
 the Gaussian 90(TM) system (copyright 1990, Gaussian, Inc.),
 the Gaussian 88(TM) system (copyright 1988, Gaussian, Inc.),
 the Gaussian 86(TM) system (copyright 1986, Carnegie Mellon
 University), and the Gaussian 82(TM) system (copyright 1983,
 Carnegie Mellon University). Gaussian is a federally registered
 trademark of Gaussian, Inc.
  
 This software contains proprietary and confidential information,
 including trade secrets, belonging to Gaussian, Inc.
  
 This software is provided under written license and may be
 used, copied, transmitted, or stored only in accord with that
 written license.
  
 The following legend is applicable only to US Government
 contracts under FAR:
  
                    RESTRICTED RIGHTS LEGEND
  
 Use, reproduction and disclosure by the US Government is
 subject to restrictions as set forth in subparagraphs (a)
 and (c) of the Commercial Computer Software - Restricted
 Rights clause in FAR 52.227-19.
  
 Gaussian, Inc.
 340 Quinnipiac St., Bldg. 40, Wallingford CT 06492
  
  
 ---------------------------------------------------------------
 Warning -- This program may not be used in any manner that
 competes with the business of Gaussian, Inc. or will provide
 assistance to any competitor of Gaussian, Inc.  The licensee
 of this program is prohibited from giving any competitor of
 Gaussian, Inc. access to this program.  By using this program,
 the user acknowledges that Gaussian, Inc. is engaged in the
 business of creating and licensing software in the field of
 computational chemistry and represents and warrants to the
 licensee that it is not a competitor of Gaussian, Inc. and that
 it will not use this program in any manner prohibited above.
 ---------------------------------------------------------------
  

 Cite this work as:
 Gaussian 16, Revision A.03,
 M. J. Frisch, G. W. Trucks, H. B. Schlegel, G. E. Scuseria, 
 M. A. Robb, J. R. Cheeseman, G. Scalmani, V. Barone, 
 G. A. Petersson, H. Nakatsuji, X. Li, M. Caricato, A. V. Marenich, 
 J. Bloino, B. G. Janesko, R. Gomperts, B. Mennucci, H. P. Hratchian, 
 J. V. Ortiz, A. F. Izmaylov, J. L. Sonnenberg, D. Williams-Young, 
 F. Ding, F. Lipparini, F. Egidi, J. Goings, B. Peng, A. Petrone, 
 T. Henderson, D. Ranasinghe, V. G. Zakrzewski, J. Gao, N. Rega, 
 G. Zheng, W. Liang, M. Hada, M. Ehara, K. Toyota, R. Fukuda, 
 J. Hasegawa, M. Ishida, T. Nakajima, Y. Honda, O. Kitao, H. Nakai, 
 T. Vreven, K. Throssell, J. A. Montgomery, Jr., J. E. Peralta, 
 F. Ogliaro, M. J. Bearpark, J. J. Heyd, E. N. Brothers, K. N. Kudin, 
 V. N. Staroverov, T. A. Keith, R. Kobayashi, J. Normand, 
 K. Raghavachari, A. P. Rendell, J. C. Burant, S. S. Iyengar, 
 J. Tomasi, M. Cossi, J. M. Millam, M. Klene, C. Adamo, R. Cammi, 
 J. W. Ochterski, R. L. Martin, K. Morokuma, O. Farkas, 
 J. B. Foresman, and D. J. Fox, Gaussian, Inc., Wallingford CT, 2016.
 
 ******************************************
 Gaussian 16:  EM64M-G16RevA.03 25-Dec-2016
                 6-Sep-2024 
 ******************************************
 %chk=N2_DFT_uB3LPY_apVTZ_Opt_Freq_Full_NBO.chk
 ----------------------------------------------------------------------
 #p opt=tight freq=raman ub3lyp/aug-cc-pvtz guess=save pop=(hirshfeld,f
 ull,nbo) geom=connectivity polar
 ----------------------------------------------------------------------
 1/7=10,18=20,19=15,26=3,38=1,57=2/1,3;
 2/9=110,12=2,17=6,18=5,40=1/2;
 3/5=16,6=1,7=10,11=2,25=1,30=1,71=1,74=-5,116=2/1,2,3;
 4//1;
 5/5=2,38=5,98=1/2;
 6/7=3,28=1,40=1,79=1/1,7;
 7//1,2,3,16;
 1/7=10,18=20,19=15,26=3/3(2);
 2/9=110/2;
 99//99;
 2/9=110/2;
 3/5=16,6=1,7=10,11=2,25=1,30=1,71=1,74=-5,116=2/1,2,3;
 4/5=5,16=3,69=1/1;
 5/5=2,38=5,98=1/2;
 7//1,2,3,16;
 1/7=10,18=20,19=15,26=3/3(-5);
 2/9=110/2;
 6/7=3,19=2,28=1,40=1,79=1/1,7;
 99/9=1/99;
 Leave Link    1 at Fri Sep  6 10:30:15 2024, MaxMem=           0 cpu:               0.0 elap:               0.0
 (Enter /Users/asuyarger/Applications/G16/g16/l101.exe)
 -----------------------------------------------
 N2 DFT uB3LPY aug-cc-pVTZ Opt Freq - Full - NBO
 -----------------------------------------------
 Symbolic Z-matrix:
 Charge =  0 Multiplicity = 1
 N                     1.03978   0.17179   0. 
 N                    -0.05222   0.17179   0. 
 
 ITRead=  0  0
 MicOpt= -1 -1
 NAtoms=      2 NQM=        2 NQMF=       0 NMMI=      0 NMMIF=      0
                NMic=       0 NMicF=      0.
                    Isotopes and Nuclear Properties:
 (Nuclear quadrupole moments (NQMom) in fm**2, nuclear magnetic moments (NMagM)
  in nuclear magnetons)

  Atom         1           2
 IAtWgt=          14          14
 AtmWgt=  14.0030740  14.0030740
 NucSpn=           2           2
 AtZEff=  -0.0000000  -0.0000000
 NQMom=    2.0440000   2.0440000
 NMagM=    0.4037610   0.4037610
 AtZNuc=   7.0000000   7.0000000
 Leave Link  101 at Fri Sep  6 10:30:15 2024, MaxMem=   104857600 cpu:               0.1 elap:               0.1
 (Enter /Users/asuyarger/Applications/G16/g16/l103.exe)

 GradGradGradGradGradGradGradGradGradGradGradGradGradGradGradGradGradGrad
 Berny optimization.
 Initialization pass.
                           ----------------------------
                           !    Initial Parameters    !
                           ! (Angstroms and Degrees)  !
 --------------------------                            --------------------------
 ! Name  Definition              Value          Derivative Info.                !
 --------------------------------------------------------------------------------
 ! R1    R(1,2)                  1.092          estimate D2E/DX2                !
 --------------------------------------------------------------------------------
 Trust Radius=3.00D-01 FncErr=1.00D-07 GrdErr=1.00D-06 EigMax=2.50D+02 EigMin=1.00D-04
 Number of steps in this run=     20 maximum allowed number of steps=    100.
 GradGradGradGradGradGradGradGradGradGradGradGradGradGradGradGradGradGrad

 Leave Link  103 at Fri Sep  6 10:30:15 2024, MaxMem=   104857600 cpu:               0.0 elap:               0.0
 (Enter /Users/asuyarger/Applications/G16/g16/l202.exe)
                          Input orientation:                          
 ---------------------------------------------------------------------
 Center     Atomic      Atomic             Coordinates (Angstroms)
 Number     Number       Type             X           Y           Z
 ---------------------------------------------------------------------
      1          7           0        1.039783    0.171790    0.000000
      2          7           0       -0.052217    0.171790    0.000000
 ---------------------------------------------------------------------
 Stoichiometry    N2
 Framework group  D*H[C*(N.N)]
 Deg. of freedom     1
 Full point group                 D*H     NOp   8
 Largest Abelian subgroup         D2H     NOp   8
 Largest concise Abelian subgroup C2      NOp   2
                         Standard orientation:                         
 ---------------------------------------------------------------------
 Center     Atomic      Atomic             Coordinates (Angstroms)
 Number     Number       Type             X           Y           Z
 ---------------------------------------------------------------------
      1          7           0        0.000000    0.000000    0.546000
      2          7           0        0.000000    0.000000   -0.546000
 ---------------------------------------------------------------------
 Rotational constants (GHZ):           0.0000000          60.5310956          60.5310956
 Leave Link  202 at Fri Sep  6 10:30:15 2024, MaxMem=   104857600 cpu:               0.0 elap:               0.0
 (Enter /Users/asuyarger/Applications/G16/g16/l301.exe)
 Standard basis: Aug-CC-pVTZ (5D, 7F)
 Ernie: Thresh=  0.10000D-02 Tol=  0.10000D-05 Strict=F.
 Ernie:  6 primitive shells out of 60 were deleted.
 There are    24 symmetry adapted cartesian basis functions of AG  symmetry.
 There are     5 symmetry adapted cartesian basis functions of B1G symmetry.
 There are    13 symmetry adapted cartesian basis functions of B2G symmetry.
 There are    13 symmetry adapted cartesian basis functions of B3G symmetry.
 There are     5 symmetry adapted cartesian basis functions of AU  symmetry.
 There are    24 symmetry adapted cartesian basis functions of B1U symmetry.
 There are    13 symmetry adapted cartesian basis functions of B2U symmetry.
 There are    13 symmetry adapted cartesian basis functions of B3U symmetry.
 There are    19 symmetry adapted basis functions of AG  symmetry.
 There are     5 symmetry adapted basis functions of B1G symmetry.
 There are    11 symmetry adapted basis functions of B2G symmetry.
 There are    11 symmetry adapted basis functions of B3G symmetry.
 There are     5 symmetry adapted basis functions of AU  symmetry.
 There are    19 symmetry adapted basis functions of B1U symmetry.
 There are    11 symmetry adapted basis functions of B2U symmetry.
 There are    11 symmetry adapted basis functions of B3U symmetry.
    92 basis functions,   144 primitive gaussians,   110 cartesian basis functions
     7 alpha electrons        7 beta electrons
       nuclear repulsion energy        23.7451312592 Hartrees.
 IExCor=  402 DFT=T Ex+Corr=B3LYP ExCW=0 ScaHFX=  0.200000
 ScaDFX=  0.800000  0.720000  1.000000  0.810000 ScalE2=  1.000000  1.000000
 IRadAn=      5 IRanWt=     -1 IRanGd=            0 ICorTp=0 IEmpDi=  4
 NAtoms=    2 NActive=    2 NUniq=    1 SFac= 4.00D+00 NAtFMM=   60 NAOKFM=F Big=F
 Integral buffers will be    131072 words long.
 Raffenetti 2 integral format.
 Two-electron integral symmetry is turned on.
 Leave Link  301 at Fri Sep  6 10:30:15 2024, MaxMem=   104857600 cpu:               0.0 elap:               0.0
 (Enter /Users/asuyarger/Applications/G16/g16/l302.exe)
 NPDir=0 NMtPBC=     1 NCelOv=     1 NCel=       1 NClECP=     1 NCelD=      1
         NCelK=      1 NCelE2=     1 NClLst=     1 CellRange=     0.0.
 One-electron integrals computed using PRISM.
 One-electron integral symmetry used in STVInt
 NBasis=    92 RedAO= T EigKep=  6.72D-05  NBF=    19     5    11    11     5    19    11    11
 NBsUse=    92 1.00D-06 EigRej= -1.00D+00 NBFU=    19     5    11    11     5    19    11    11
 Precomputing XC quadrature grid using
 IXCGrd= 4 IRadAn=           5 IRanWt=          -1 IRanGd=           0 AccXCQ= 0.00D+00.
 Generated NRdTot=       0 NPtTot=           0 NUsed=           0 NTot=          32
 NSgBfM=   110   110   110   110   110 MxSgAt=     2 MxSgA2=     2.
 Leave Link  302 at Fri Sep  6 10:30:15 2024, MaxMem=   104857600 cpu:               0.1 elap:               0.1
 (Enter /Users/asuyarger/Applications/G16/g16/l303.exe)
 DipDrv:  MaxL=1.
 Leave Link  303 at Fri Sep  6 10:30:15 2024, MaxMem=   104857600 cpu:               0.0 elap:               0.0
 (Enter /Users/asuyarger/Applications/G16/g16/l401.exe)
 ExpMin= 4.91D-02 ExpMax= 1.14D+04 ExpMxC= 3.89D+02 IAcc=3 IRadAn=         5 AccDes= 0.00D+00
 Harris functional with IExCor=  402 and IRadAn=       5 diagonalized for initial guess.
 HarFok:  IExCor=  402 AccDes= 0.00D+00 IRadAn=         5 IDoV= 1 UseB2=F ITyADJ=14
 ICtDFT=  3500011 ScaDFX=  1.000000  1.000000  1.000000  1.000000
 FoFCou: FMM=F IPFlag=           0 FMFlag=      100000 FMFlg1=           0
         NFxFlg=           0 DoJE=T BraDBF=F KetDBF=T FulRan=T
         wScrn=  0.000000 ICntrl=       500 IOpCl=  0 I1Cent=   200000004 NGrid=           0
         NMat0=    1 NMatS0=      1 NMatT0=    0 NMatD0=    1 NMtDS0=    0 NMtDT0=    0
 Petite list used in FoFCou.
 Harris En= -109.550213950491    
 JPrj=0 DoOrth=F DoCkMO=F.
 Initial guess orbital symmetries:
 Alpha Orbitals:
       Occupied  (SGG) (SGU) (SGG) (SGU) (PIU) (PIU) (SGG)
       Virtual   (PIG) (PIG) (SGG) (SGU) (PIU) (PIU) (SGG) (PIG)
                 (PIG) (SGU) (DLTG) (DLTG) (SGG) (SGU) (PIU) (PIU)
                 (PIG) (PIG) (DLTU) (DLTU) (PIU) (PIU) (SGG) (SGU)
                 (SGU) (PIG) (PIG) (SGG) (DLTG) (DLTG) (PHIU) (PHIU)
                 (PIU) (PIU) (DLTU) (DLTU) (SGU) (SGG) (DLTG) (DLTG)
                 (PIG) (PIG) (PHIG) (PHIG) (SGU) (PIU) (PIU) (DLTU)
                 (DLTU) (PIG) (PIG) (SGU) (SGG) (PIU) (PIU) (SGG)
                 (PIG) (PIG) (DLTG) (DLTG) (SGU) (SGG) (PIU) (PIU)
                 (PHIU) (PHIU) (DLTG) (DLTG) (PHIG) (PHIG) (DLTU)
                 (DLTU) (SGU) (PIG) (PIG) (PIU) (PIU) (DLTU) (DLTU)
                 (SGG) (SGU) (PIG) (PIG) (SGG) (SGU)
 Beta  Orbitals:
       Occupied  (SGG) (SGU) (SGG) (SGU) (PIU) (PIU) (SGG)
       Virtual   (PIG) (PIG) (SGG) (SGU) (PIU) (PIU) (SGG) (PIG)
                 (PIG) (SGU) (DLTG) (DLTG) (SGG) (SGU) (PIU) (PIU)
                 (PIG) (PIG) (DLTU) (DLTU) (PIU) (PIU) (SGG) (SGU)
                 (SGU) (PIG) (PIG) (SGG) (DLTG) (DLTG) (PHIU) (PHIU)
                 (PIU) (PIU) (DLTU) (DLTU) (SGU) (SGG) (DLTG) (DLTG)
                 (PIG) (PIG) (PHIG) (PHIG) (SGU) (PIU) (PIU) (DLTU)
                 (DLTU) (PIG) (PIG) (SGU) (SGG) (PIU) (PIU) (SGG)
                 (PIG) (PIG) (DLTG) (DLTG) (SGU) (SGG) (PIU) (PIU)
                 (PHIU) (PHIU) (DLTG) (DLTG) (PHIG) (PHIG) (DLTU)
                 (DLTU) (SGU) (PIG) (PIG) (PIU) (PIU) (DLTU) (DLTU)
                 (SGG) (SGU) (PIG) (PIG) (SGG) (SGU)
 The electronic state of the initial guess is 1-SGG.
 Initial guess <Sx>= 0.0000 <Sy>= 0.0000 <Sz>= 0.0000 <S**2>= 0.0000 S= 0.0000
 Leave Link  401 at Fri Sep  6 10:30:15 2024, MaxMem=   104857600 cpu:               0.1 elap:               0.1
 (Enter /Users/asuyarger/Applications/G16/g16/l502.exe)
 Keep R1 and R2 ints in memory in symmetry-blocked form, NReq=11140536.
 FoFCou: FMM=F IPFlag=           0 FMFlag=           0 FMFlg1=           0
         NFxFlg=           0 DoJE=F BraDBF=F KetDBF=F FulRan=T
         wScrn=  0.000000 ICntrl=       600 IOpCl=  0 I1Cent=           0 NGrid=           0
         NMat0=    1 NMatS0=   4278 NMatT0=    0 NMatD0=    1 NMtDS0=    0 NMtDT0=    0
 Petite list used in FoFCou.
 UHF open shell SCF:
 Using DIIS extrapolation, IDIIS=  1040.
 NGot=   104857600 LenX=   102475162 LenY=   102462621
 Requested convergence on RMS density matrix=1.00D-08 within 128 cycles.
 Requested convergence on MAX density matrix=1.00D-06.
 Requested convergence on             energy=1.00D-06.
 No special actions if energy rises.

 Cycle   1  Pass 1  IDiag  1:
 E= -109.562652538209    
 DIIS: error= 1.60D-02 at cycle   1 NSaved=   1.
 NSaved= 1 IEnMin= 1 EnMin= -109.562652538209     IErMin= 1 ErrMin= 1.60D-02
 ErrMax= 1.60D-02  0.00D+00 EMaxC= 1.00D-01 BMatC= 6.62D-02 BMatP= 6.62D-02
 IDIUse=3 WtCom= 8.40D-01 WtEn= 1.60D-01
 Coeff-Com:  0.100D+01
 Coeff-En:   0.100D+01
 Coeff:      0.100D+01
 Gap=     0.405 Goal=   None    Shift=    0.000
 Gap=     0.405 Goal=   None    Shift=    0.000
 GapD=    0.405 DampG=2.000 DampE=0.500 DampFc=1.0000 IDamp=-1.
 RMSDP=1.89D-03 MaxDP=6.04D-02              OVMax= 3.40D-02

 Cycle   2  Pass 1  IDiag  1:
 E= -109.568080598839     Delta-E=       -0.005428060630 Rises=F Damp=F
 DIIS: error= 7.21D-03 at cycle   2 NSaved=   2.
 NSaved= 2 IEnMin= 2 EnMin= -109.568080598839     IErMin= 2 ErrMin= 7.21D-03
 ErrMax= 7.21D-03  0.00D+00 EMaxC= 1.00D-01 BMatC= 1.29D-02 BMatP= 6.62D-02
 IDIUse=3 WtCom= 9.28D-01 WtEn= 7.21D-02
 Coeff-Com:  0.279D+00 0.721D+00
 Coeff-En:   0.341D-01 0.966D+00
 Coeff:      0.262D+00 0.738D+00
 Gap=     0.407 Goal=   None    Shift=    0.000
 Gap=     0.407 Goal=   None    Shift=    0.000
 RMSDP=5.61D-04 MaxDP=1.19D-02 DE=-5.43D-03 OVMax= 1.95D-02

 Cycle   3  Pass 1  IDiag  1:
 E= -109.570363318524     Delta-E=       -0.002282719685 Rises=F Damp=F
 DIIS: error= 2.34D-03 at cycle   3 NSaved=   3.
 NSaved= 3 IEnMin= 3 EnMin= -109.570363318524     IErMin= 3 ErrMin= 2.34D-03
 ErrMax= 2.34D-03  0.00D+00 EMaxC= 1.00D-01 BMatC= 1.07D-03 BMatP= 1.29D-02
 IDIUse=3 WtCom= 9.77D-01 WtEn= 2.34D-02
 Coeff-Com:  0.171D-02 0.224D+00 0.774D+00
 Coeff-En:   0.000D+00 0.000D+00 0.100D+01
 Coeff:      0.167D-02 0.219D+00 0.779D+00
 Gap=     0.405 Goal=   None    Shift=    0.000
 Gap=     0.405 Goal=   None    Shift=    0.000
 RMSDP=1.15D-04 MaxDP=2.02D-03 DE=-2.28D-03 OVMax= 4.54D-03

 Cycle   4  Pass 1  IDiag  1:
 E= -109.570583032641     Delta-E=       -0.000219714117 Rises=F Damp=F
 DIIS: error= 1.23D-04 at cycle   4 NSaved=   4.
 NSaved= 4 IEnMin= 4 EnMin= -109.570583032641     IErMin= 4 ErrMin= 1.23D-04
 ErrMax= 1.23D-04  0.00D+00 EMaxC= 1.00D-01 BMatC= 2.16D-06 BMatP= 1.07D-03
 IDIUse=3 WtCom= 9.99D-01 WtEn= 1.23D-03
 Coeff-Com: -0.100D-03 0.282D-01 0.129D+00 0.843D+00
 Coeff-En:   0.000D+00 0.000D+00 0.000D+00 0.100D+01
 Coeff:     -0.100D-03 0.282D-01 0.129D+00 0.843D+00
 Gap=     0.405 Goal=   None    Shift=    0.000
 Gap=     0.405 Goal=   None    Shift=    0.000
 RMSDP=6.90D-06 MaxDP=1.67D-04 DE=-2.20D-04 OVMax= 1.66D-04

 Cycle   5  Pass 1  IDiag  1:
 E= -109.570583414553     Delta-E=       -0.000000381912 Rises=F Damp=F
 DIIS: error= 1.11D-05 at cycle   5 NSaved=   5.
 NSaved= 5 IEnMin= 5 EnMin= -109.570583414553     IErMin= 5 ErrMin= 1.11D-05
 ErrMax= 1.11D-05  0.00D+00 EMaxC= 1.00D-01 BMatC= 2.34D-08 BMatP= 2.16D-06
 IDIUse=1 WtCom= 1.00D+00 WtEn= 0.00D+00
 Coeff-Com: -0.487D-04-0.781D-03 0.402D-02 0.124D+00 0.873D+00
 Coeff:     -0.487D-04-0.781D-03 0.402D-02 0.124D+00 0.873D+00
 Gap=     0.405 Goal=   None    Shift=    0.000
 Gap=     0.405 Goal=   None    Shift=    0.000
 RMSDP=1.29D-06 MaxDP=3.99D-05 DE=-3.82D-07 OVMax= 2.91D-05

 Cycle   6  Pass 1  IDiag  1:
 E= -109.570583418752     Delta-E=       -0.000000004199 Rises=F Damp=F
 DIIS: error= 4.28D-07 at cycle   6 NSaved=   6.
 NSaved= 6 IEnMin= 6 EnMin= -109.570583418752     IErMin= 6 ErrMin= 4.28D-07
 ErrMax= 4.28D-07  0.00D+00 EMaxC= 1.00D-01 BMatC= 3.09D-11 BMatP= 2.34D-08
 IDIUse=1 WtCom= 1.00D+00 WtEn= 0.00D+00
 Coeff-Com:  0.153D-05-0.140D-03-0.800D-03-0.819D-02-0.128D-01 0.102D+01
 Coeff:      0.153D-05-0.140D-03-0.800D-03-0.819D-02-0.128D-01 0.102D+01
 Gap=     0.405 Goal=   None    Shift=    0.000
 Gap=     0.405 Goal=   None    Shift=    0.000
 RMSDP=4.45D-08 MaxDP=1.21D-06 DE=-4.20D-09 OVMax= 9.88D-07

 Cycle   7  Pass 1  IDiag  1:
 E= -109.570583418758     Delta-E=       -0.000000000006 Rises=F Damp=F
 DIIS: error= 1.45D-08 at cycle   7 NSaved=   7.
 NSaved= 7 IEnMin= 7 EnMin= -109.570583418758     IErMin= 7 ErrMin= 1.45D-08
 ErrMax= 1.45D-08  0.00D+00 EMaxC= 1.00D-01 BMatC= 3.67D-14 BMatP= 3.09D-11
 IDIUse=1 WtCom= 1.00D+00 WtEn= 0.00D+00
 Coeff-Com: -0.113D-06 0.387D-05 0.768D-05-0.627D-04-0.614D-03-0.325D-01
 Coeff-Com:  0.103D+01
 Coeff:     -0.113D-06 0.387D-05 0.768D-05-0.627D-04-0.614D-03-0.325D-01
 Coeff:      0.103D+01
 Gap=     0.405 Goal=   None    Shift=    0.000
 Gap=     0.405 Goal=   None    Shift=    0.000
 RMSDP=2.34D-09 MaxDP=8.27D-08 DE=-5.83D-12 OVMax= 4.52D-08

 SCF Done:  E(UB3LYP) =  -109.570583419     A.U. after    7 cycles
            NFock=  7  Conv=0.23D-08     -V/T= 2.0057
 <Sx>= 0.0000 <Sy>= 0.0000 <Sz>= 0.0000 <S**2>= 0.0000 S= 0.0000
 <L.S>= 0.000000000000E+00
 KE= 1.089500497934D+02 PE=-3.037307534203D+02 EE= 6.146498894891D+01
 Annihilation of the first spin contaminant:
 S**2 before annihilation     0.0000,   after    -0.0000
 Leave Link  502 at Fri Sep  6 10:30:17 2024, MaxMem=   104857600 cpu:               1.1 elap:               1.1
 (Enter /Users/asuyarger/Applications/G16/g16/l601.exe)
 Copying SCF densities to generalized density rwf, IOpCl= 1 IROHF=0.

 **********************************************************************

            Population analysis using the SCF density.

 **********************************************************************

 Orbital symmetries:
 Alpha Orbitals:
       Occupied  (SGG) (SGU) (SGG) (SGU) (PIU) (PIU) (SGG)
       Virtual   (PIG) (PIG) (SGU) (SGG) (PIU) (PIU) (SGG) (PIG)
                 (PIG) (SGU) (DLTG) (DLTG) (SGG) (SGU) (PIU) (PIU)
                 (PIG) (PIG) (DLTU) (DLTU) (PIU) (PIU) (SGG) (SGU)
                 (SGU) (PIG) (PIG) (SGG) (DLTG) (DLTG) (PHIU) (PHIU)
                 (PIU) (PIU) (DLTU) (DLTU) (SGU) (SGG) (DLTG) (DLTG)
                 (PIG) (PIG) (PHIG) (PHIG) (SGU) (PIU) (PIU) (DLTU)
                 (DLTU) (PIG) (PIG) (SGU) (SGG) (PIU) (PIU) (SGG)
                 (PIG) (PIG) (DLTG) (DLTG) (SGU) (PIU) (PIU) (SGG)
                 (PHIU) (PHIU) (DLTG) (DLTG) (PHIG) (PHIG) (DLTU)
                 (DLTU) (SGU) (PIG) (PIG) (PIU) (PIU) (DLTU) (DLTU)
                 (SGG) (SGU) (PIG) (PIG) (SGG) (SGU)
 Beta  Orbitals:
       Occupied  (SGG) (SGU) (SGG) (SGU) (PIU) (PIU) (SGG)
       Virtual   (PIG) (PIG) (SGU) (SGG) (PIU) (PIU) (SGG) (PIG)
                 (PIG) (SGU) (DLTG) (DLTG) (SGG) (SGU) (PIU) (PIU)
                 (PIG) (PIG) (DLTU) (DLTU) (PIU) (PIU) (SGG) (SGU)
                 (SGU) (PIG) (PIG) (SGG) (DLTG) (DLTG) (PHIU) (PHIU)
                 (PIU) (PIU) (DLTU) (DLTU) (SGU) (SGG) (DLTG) (DLTG)
                 (PIG) (PIG) (PHIG) (PHIG) (SGU) (PIU) (PIU) (DLTU)
                 (DLTU) (PIG) (PIG) (SGU) (SGG) (PIU) (PIU) (SGG)
                 (PIG) (PIG) (DLTG) (DLTG) (SGU) (PIU) (PIU) (SGG)
                 (PHIU) (PHIU) (DLTG) (DLTG) (PHIG) (PHIG) (DLTU)
                 (DLTU) (SGU) (PIG) (PIG) (PIU) (PIU) (DLTU) (DLTU)
                 (SGG) (SGU) (PIG) (PIG) (SGG) (SGU)
 The electronic state is 1-SGG.
 Alpha  occ. eigenvalues --  -14.42655 -14.42467  -1.13696  -0.55940  -0.47594
 Alpha  occ. eigenvalues --   -0.47594  -0.44015
 Alpha virt. eigenvalues --   -0.03479  -0.03479   0.04590   0.04857   0.06616
 Alpha virt. eigenvalues --    0.06616   0.10637   0.12814   0.12814   0.21528
 Alpha virt. eigenvalues --    0.29142   0.29142   0.37090   0.41139   0.45085
 Alpha virt. eigenvalues --    0.45085   0.45759   0.45759   0.47132   0.47132
 Alpha virt. eigenvalues --    0.55491   0.55491   0.60207   0.61770   0.82256
 Alpha virt. eigenvalues --    0.88008   0.88008   1.03011   1.12461   1.12461
 Alpha virt. eigenvalues --    1.17573   1.17573   1.24774   1.24774   1.35856
 Alpha virt. eigenvalues --    1.35856   1.40287   1.47878   1.49492   1.49492
 Alpha virt. eigenvalues --    1.51656   1.51656   1.52692   1.52692   1.75859
 Alpha virt. eigenvalues --    1.92997   1.92997   2.08308   2.08308   2.15565
 Alpha virt. eigenvalues --    2.15565   2.45582   2.47476   2.86534   2.86534
 Alpha virt. eigenvalues --    3.62006   3.88113   3.88113   4.01857   4.01857
 Alpha virt. eigenvalues --    4.08671   4.13113   4.13113   4.13390   4.29136
 Alpha virt. eigenvalues --    4.29136   4.65658   4.65658   4.67122   4.67122
 Alpha virt. eigenvalues --    4.74388   4.74388   4.80013   4.98151   4.98151
 Alpha virt. eigenvalues --    5.17185   5.17185   5.34714   5.34714   6.25077
 Alpha virt. eigenvalues --    6.29905   6.44723   6.44723  10.30128  18.63052
  Beta  occ. eigenvalues --  -14.42655 -14.42467  -1.13696  -0.55940  -0.47594
  Beta  occ. eigenvalues --   -0.47594  -0.44015
  Beta virt. eigenvalues --   -0.03479  -0.03479   0.04590   0.04857   0.06616
  Beta virt. eigenvalues --    0.06616   0.10637   0.12814   0.12814   0.21528
  Beta virt. eigenvalues --    0.29142   0.29142   0.37090   0.41139   0.45085
  Beta virt. eigenvalues --    0.45085   0.45759   0.45759   0.47132   0.47132
  Beta virt. eigenvalues --    0.55491   0.55491   0.60207   0.61770   0.82256
  Beta virt. eigenvalues --    0.88008   0.88008   1.03011   1.12461   1.12461
  Beta virt. eigenvalues --    1.17573   1.17573   1.24774   1.24774   1.35856
  Beta virt. eigenvalues --    1.35856   1.40287   1.47878   1.49492   1.49492
  Beta virt. eigenvalues --    1.51656   1.51656   1.52692   1.52692   1.75859
  Beta virt. eigenvalues --    1.92997   1.92997   2.08308   2.08308   2.15565
  Beta virt. eigenvalues --    2.15565   2.45582   2.47476   2.86534   2.86534
  Beta virt. eigenvalues --    3.62006   3.88113   3.88113   4.01857   4.01857
  Beta virt. eigenvalues --    4.08671   4.13113   4.13113   4.13390   4.29136
  Beta virt. eigenvalues --    4.29136   4.65658   4.65658   4.67122   4.67122
  Beta virt. eigenvalues --    4.74388   4.74388   4.80013   4.98151   4.98151
  Beta virt. eigenvalues --    5.17185   5.17185   5.34714   5.34714   6.25077
  Beta virt. eigenvalues --    6.29905   6.44723   6.44723  10.30128  18.63052
     Alpha Molecular Orbital Coefficients:
                           1         2         3         4         5
                       (SGG)--O  (SGU)--O  (SGG)--O  (SGU)--O  (PIU)--O
     Eigenvalues --   -14.42655 -14.42467  -1.13696  -0.55940  -0.47594
   1 1   N  1S          0.68879   0.68957  -0.15918  -0.14492   0.00000
   2        2S         -0.00269   0.00032   0.34205   0.35868   0.00000
   3        3S          0.03807   0.03585   0.09982   0.10770   0.00000
   4        4S          0.00199   0.06976   0.10471   0.47454   0.00000
   5        5S         -0.00167   0.01860  -0.00524   0.08212   0.00000
   6        6PX         0.00000   0.00000   0.00000   0.00000   0.00000
   7        6PY         0.00000   0.00000   0.00000   0.00000   0.25104
   8        6PZ        -0.00218  -0.00050  -0.13868   0.11701   0.00000
   9        7PX         0.00000   0.00000   0.00000   0.00000   0.00000
  10        7PY         0.00000   0.00000   0.00000   0.00000   0.30281
  11        7PZ        -0.00001  -0.01333  -0.13189   0.13026   0.00000
  12        8PX         0.00000   0.00000   0.00000   0.00000   0.00000
  13        8PY         0.00000   0.00000   0.00000   0.00000   0.16477
  14        8PZ         0.00720  -0.03036   0.00258  -0.00458   0.00000
  15        9PX         0.00000   0.00000   0.00000   0.00000   0.00000
  16        9PY         0.00000   0.00000   0.00000   0.00000   0.00690
  17        9PZ         0.00097  -0.00329   0.00951  -0.00671   0.00000
  18       10D 0        0.00077   0.00160   0.01831  -0.00501   0.00000
  19       10D+1        0.00000   0.00000   0.00000   0.00000   0.00000
  20       10D-1        0.00000   0.00000   0.00000   0.00000  -0.01786
  21       10D+2        0.00000  -0.00000   0.00000   0.00000   0.00000
  22       10D-2        0.00000   0.00000   0.00000   0.00000   0.00000
  23       11D 0       -0.00351   0.00676   0.01187  -0.00836   0.00000
  24       11D+1        0.00000   0.00000   0.00000   0.00000   0.00000
  25       11D-1        0.00000   0.00000   0.00000   0.00000  -0.02956
  26       11D+2       -0.00000   0.00000  -0.00000  -0.00000   0.00000
  27       11D-2        0.00000   0.00000   0.00000   0.00000   0.00000
  28       12D 0       -0.00303   0.00467  -0.01378   0.01108   0.00000
  29       12D+1        0.00000   0.00000   0.00000   0.00000   0.00000
  30       12D-1        0.00000   0.00000   0.00000   0.00000  -0.00443
  31       12D+2        0.00000   0.00000   0.00000  -0.00000   0.00000
  32       12D-2        0.00000   0.00000   0.00000   0.00000   0.00000
  33       13F 0        0.00048  -0.00167  -0.00693  -0.00023   0.00000
  34       13F+1        0.00000   0.00000   0.00000   0.00000   0.00000
  35       13F-1        0.00000   0.00000   0.00000   0.00000   0.00745
  36       13F+2        0.00000   0.00000  -0.00000   0.00000   0.00000
  37       13F-2        0.00000   0.00000   0.00000   0.00000   0.00000
  38       13F+3        0.00000   0.00000   0.00000   0.00000   0.00000
  39       13F-3        0.00000   0.00000   0.00000   0.00000   0.00000
  40       14F 0        0.00180  -0.00113   0.00330   0.00094   0.00000
  41       14F+1        0.00000   0.00000   0.00000   0.00000   0.00000
  42       14F-1        0.00000   0.00000   0.00000   0.00000  -0.00004
  43       14F+2       -0.00000  -0.00000   0.00000   0.00000   0.00000
  44       14F-2        0.00000   0.00000   0.00000   0.00000   0.00000
  45       14F+3        0.00000   0.00000   0.00000   0.00000   0.00000
  46       14F-3        0.00000   0.00000   0.00000   0.00000  -0.00000
  47 2   N  1S          0.68879  -0.68957  -0.15918   0.14492   0.00000
  48        2S         -0.00269  -0.00032   0.34205  -0.35868   0.00000
  49        3S          0.03807  -0.03585   0.09982  -0.10770   0.00000
  50        4S          0.00199  -0.06976   0.10471  -0.47454   0.00000
  51        5S         -0.00167  -0.01860  -0.00524  -0.08212   0.00000
  52        6PX         0.00000   0.00000   0.00000   0.00000   0.00000
  53        6PY         0.00000   0.00000   0.00000   0.00000   0.25104
  54        6PZ         0.00218  -0.00050   0.13868   0.11701   0.00000
  55        7PX         0.00000   0.00000   0.00000   0.00000   0.00000
  56        7PY         0.00000   0.00000   0.00000   0.00000   0.30281
  57        7PZ         0.00001  -0.01333   0.13189   0.13026   0.00000
  58        8PX         0.00000   0.00000   0.00000   0.00000   0.00000
  59        8PY         0.00000   0.00000   0.00000   0.00000   0.16477
  60        8PZ        -0.00720  -0.03036  -0.00258  -0.00458   0.00000
  61        9PX         0.00000   0.00000   0.00000   0.00000   0.00000
  62        9PY         0.00000   0.00000   0.00000   0.00000   0.00690
  63        9PZ        -0.00097  -0.00329  -0.00951  -0.00671   0.00000
  64       10D 0        0.00077  -0.00160   0.01831   0.00501   0.00000
  65       10D+1        0.00000   0.00000   0.00000   0.00000   0.00000
  66       10D-1        0.00000   0.00000   0.00000   0.00000   0.01786
  67       10D+2        0.00000   0.00000   0.00000  -0.00000   0.00000
  68       10D-2        0.00000   0.00000   0.00000   0.00000   0.00000
  69       11D 0       -0.00351  -0.00676   0.01187   0.00836   0.00000
  70       11D+1        0.00000   0.00000   0.00000   0.00000   0.00000
  71       11D-1        0.00000   0.00000   0.00000   0.00000   0.02956
  72       11D+2       -0.00000  -0.00000  -0.00000   0.00000   0.00000
  73       11D-2        0.00000   0.00000   0.00000   0.00000   0.00000
  74       12D 0       -0.00303  -0.00467  -0.01378  -0.01108   0.00000
  75       12D+1        0.00000   0.00000   0.00000   0.00000   0.00000
  76       12D-1        0.00000   0.00000   0.00000   0.00000   0.00443
  77       12D+2        0.00000  -0.00000   0.00000   0.00000   0.00000
  78       12D-2        0.00000   0.00000   0.00000   0.00000   0.00000
  79       13F 0       -0.00048  -0.00167   0.00693  -0.00023   0.00000
  80       13F+1        0.00000   0.00000   0.00000   0.00000   0.00000
  81       13F-1        0.00000   0.00000   0.00000   0.00000   0.00745
  82       13F+2       -0.00000   0.00000   0.00000   0.00000   0.00000
  83       13F-2        0.00000   0.00000   0.00000   0.00000   0.00000
  84       13F+3        0.00000   0.00000   0.00000   0.00000   0.00000
  85       13F-3        0.00000   0.00000   0.00000   0.00000   0.00000
  86       14F 0       -0.00180  -0.00113  -0.00330   0.00094   0.00000
  87       14F+1        0.00000   0.00000   0.00000   0.00000   0.00000
  88       14F-1        0.00000   0.00000   0.00000   0.00000  -0.00004
  89       14F+2        0.00000  -0.00000  -0.00000   0.00000   0.00000
  90       14F-2        0.00000   0.00000   0.00000   0.00000   0.00000
  91       14F+3        0.00000   0.00000   0.00000   0.00000   0.00000
  92       14F-3        0.00000   0.00000   0.00000   0.00000  -0.00000
                           6         7         8         9        10
                       (PIU)--O  (SGG)--O  (PIG)--V  (PIG)--V  (SGU)--V
     Eigenvalues --    -0.47594  -0.44015  -0.03479  -0.03479   0.04590
   1 1   N  1S          0.00000  -0.05118   0.00000   0.00000  -0.02770
   2        2S          0.00000   0.12936   0.00000   0.00000   0.08166
   3        3S          0.00000   0.03476   0.00000   0.00000   0.02132
   4        4S          0.00000   0.23702   0.00000   0.00000   3.28815
   5        5S          0.00000   0.04335   0.00000   0.00000   9.96937
   6        6PX         0.25104   0.00000   0.00000   0.26474   0.00000
   7        6PY         0.00000   0.00000   0.26474   0.00000   0.00000
   8        6PZ         0.00000   0.26541   0.00000   0.00000   0.02152
   9        7PX         0.30281   0.00000   0.00000   0.33106   0.00000
  10        7PY         0.00000   0.00000   0.33106   0.00000   0.00000
  11        7PZ         0.00000   0.28725   0.00000   0.00000  -0.08610
  12        8PX         0.16477   0.00000   0.00000   0.38647   0.00000
  13        8PY         0.00000   0.00000   0.38647   0.00000   0.00000
  14        8PZ         0.00000   0.13148   0.00000   0.00000  -1.73855
  15        9PX         0.00690   0.00000   0.00000   0.41413   0.00000
  16        9PY         0.00000   0.00000   0.41413   0.00000   0.00000
  17        9PZ         0.00000   0.00326   0.00000   0.00000  -2.81468
  18       10D 0        0.00000  -0.01779   0.00000   0.00000  -0.00166
  19       10D+1       -0.01786   0.00000   0.00000   0.00960   0.00000
  20       10D-1        0.00000   0.00000   0.00960   0.00000   0.00000
  21       10D+2        0.00000   0.00000   0.00000   0.00000   0.00000
  22       10D-2        0.00000   0.00000   0.00000   0.00000   0.00000
  23       11D 0        0.00000  -0.00949   0.00000   0.00000   0.07562
  24       11D+1       -0.02956   0.00000   0.00000   0.03320   0.00000
  25       11D-1        0.00000   0.00000   0.03320   0.00000   0.00000
  26       11D+2        0.00000  -0.00000   0.00000   0.00000  -0.00000
  27       11D-2        0.00000   0.00000   0.00000   0.00000   0.00000
  28       12D 0        0.00000   0.00369   0.00000   0.00000   0.35454
  29       12D+1       -0.00443   0.00000   0.00000   0.02630   0.00000
  30       12D-1        0.00000   0.00000   0.02630   0.00000   0.00000
  31       12D+2        0.00000   0.00000   0.00000   0.00000   0.00000
  32       12D-2        0.00000   0.00000   0.00000   0.00000   0.00000
  33       13F 0        0.00000   0.00467   0.00000   0.00000  -0.00492
  34       13F+1        0.00745   0.00000   0.00000  -0.00431   0.00000
  35       13F-1        0.00000   0.00000  -0.00431   0.00000   0.00000
  36       13F+2        0.00000   0.00000   0.00000   0.00000   0.00000
  37       13F-2        0.00000   0.00000   0.00000   0.00000   0.00000
  38       13F+3       -0.00000   0.00000   0.00000  -0.00000   0.00000
  39       13F-3        0.00000   0.00000   0.00000   0.00000   0.00000
  40       14F 0        0.00000  -0.00393   0.00000   0.00000  -0.01543
  41       14F+1       -0.00004   0.00000   0.00000  -0.00729   0.00000
  42       14F-1        0.00000   0.00000  -0.00729   0.00000   0.00000
  43       14F+2        0.00000  -0.00000   0.00000   0.00000   0.00000
  44       14F-2        0.00000   0.00000   0.00000   0.00000   0.00000
  45       14F+3        0.00000   0.00000   0.00000   0.00000   0.00000
  46       14F-3        0.00000   0.00000  -0.00000   0.00000   0.00000
  47 2   N  1S          0.00000  -0.05118   0.00000   0.00000   0.02770
  48        2S          0.00000   0.12936   0.00000   0.00000  -0.08166
  49        3S          0.00000   0.03476   0.00000   0.00000  -0.02132
  50        4S          0.00000   0.23702   0.00000   0.00000  -3.28815
  51        5S          0.00000   0.04335   0.00000   0.00000  -9.96937
  52        6PX         0.25104   0.00000   0.00000  -0.26474   0.00000
  53        6PY         0.00000   0.00000  -0.26474   0.00000   0.00000
  54        6PZ         0.00000  -0.26541   0.00000   0.00000   0.02152
  55        7PX         0.30281   0.00000   0.00000  -0.33106   0.00000
  56        7PY         0.00000   0.00000  -0.33106   0.00000   0.00000
  57        7PZ         0.00000  -0.28725   0.00000   0.00000  -0.08610
  58        8PX         0.16477   0.00000   0.00000  -0.38647   0.00000
  59        8PY         0.00000   0.00000  -0.38647   0.00000   0.00000
  60        8PZ         0.00000  -0.13148   0.00000   0.00000  -1.73855
  61        9PX         0.00690   0.00000   0.00000  -0.41413   0.00000
  62        9PY         0.00000   0.00000  -0.41413   0.00000   0.00000
  63        9PZ         0.00000  -0.00326   0.00000   0.00000  -2.81468
  64       10D 0        0.00000  -0.01779   0.00000   0.00000   0.00166
  65       10D+1        0.01786   0.00000   0.00000   0.00960   0.00000
  66       10D-1        0.00000   0.00000   0.00960   0.00000   0.00000
  67       10D+2        0.00000   0.00000   0.00000   0.00000  -0.00000
  68       10D-2        0.00000   0.00000   0.00000   0.00000   0.00000
  69       11D 0        0.00000  -0.00949   0.00000   0.00000  -0.07562
  70       11D+1        0.02956   0.00000   0.00000   0.03320   0.00000
  71       11D-1        0.00000   0.00000   0.03320   0.00000   0.00000
  72       11D+2        0.00000  -0.00000   0.00000   0.00000   0.00000
  73       11D-2        0.00000   0.00000   0.00000   0.00000   0.00000
  74       12D 0        0.00000   0.00369   0.00000   0.00000  -0.35454
  75       12D+1        0.00443   0.00000   0.00000   0.02630   0.00000
  76       12D-1        0.00000   0.00000   0.02630   0.00000   0.00000
  77       12D+2        0.00000   0.00000   0.00000   0.00000  -0.00000
  78       12D-2        0.00000   0.00000   0.00000   0.00000   0.00000
  79       13F 0        0.00000  -0.00467   0.00000   0.00000  -0.00492
  80       13F+1        0.00745   0.00000   0.00000   0.00431   0.00000
  81       13F-1        0.00000   0.00000   0.00431   0.00000   0.00000
  82       13F+2        0.00000  -0.00000   0.00000   0.00000   0.00000
  83       13F-2        0.00000   0.00000   0.00000   0.00000   0.00000
  84       13F+3       -0.00000   0.00000   0.00000   0.00000   0.00000
  85       13F-3        0.00000   0.00000  -0.00000   0.00000   0.00000
  86       14F 0        0.00000   0.00393   0.00000   0.00000  -0.01543
  87       14F+1       -0.00004   0.00000   0.00000   0.00729   0.00000
  88       14F-1        0.00000   0.00000   0.00729   0.00000   0.00000
  89       14F+2        0.00000   0.00000   0.00000   0.00000   0.00000
  90       14F-2        0.00000   0.00000   0.00000   0.00000   0.00000
  91       14F+3        0.00000   0.00000   0.00000  -0.00000   0.00000
  92       14F-3        0.00000   0.00000   0.00000   0.00000   0.00000
                          11        12        13        14        15
                       (SGG)--V  (PIU)--V  (PIU)--V  (SGG)--V  (PIG)--V
     Eigenvalues --     0.04857   0.06616   0.06616   0.10637   0.12814
   1 1   N  1S          0.04039   0.00000   0.00000  -0.01242   0.00000
   2        2S         -0.13243   0.00000   0.00000   0.08499   0.00000
   3        3S         -0.05818   0.00000   0.00000   0.03380   0.00000
   4        4S         -0.70127   0.00000   0.00000   0.66246   0.00000
   5        5S          0.97665   0.00000   0.00000  -0.12518   0.00000
   6        6PX         0.00000   0.00000  -0.07458   0.00000  -0.11073
   7        6PY         0.00000  -0.07458   0.00000   0.00000   0.00000
   8        6PZ        -0.06793   0.00000   0.00000  -0.01495   0.00000
   9        7PX         0.00000   0.00000  -0.06779   0.00000  -0.11229
  10        7PY         0.00000  -0.06779   0.00000   0.00000   0.00000
  11        7PZ        -0.03554   0.00000   0.00000  -0.04714   0.00000
  12        8PX         0.00000   0.00000  -0.16315   0.00000   0.61447
  13        8PY         0.00000  -0.16315   0.00000   0.00000   0.00000
  14        8PZ        -0.37342   0.00000   0.00000   0.32809   0.00000
  15        9PX         0.00000   0.00000   0.59280   0.00000   2.72977
  16        9PY         0.00000   0.59280   0.00000   0.00000   0.00000
  17        9PZ         0.35321   0.00000   0.00000   1.97786   0.00000
  18       10D 0       -0.00408   0.00000   0.00000   0.00666   0.00000
  19       10D+1        0.00000   0.00000   0.00623   0.00000  -0.00150
  20       10D-1        0.00000   0.00623   0.00000   0.00000   0.00000
  21       10D+2       -0.00000   0.00000   0.00000  -0.00000   0.00000
  22       10D-2        0.00000   0.00000   0.00000   0.00000   0.00000
  23       11D 0        0.02752   0.00000   0.00000   0.01041   0.00000
  24       11D+1        0.00000   0.00000   0.01565   0.00000  -0.04910
  25       11D-1        0.00000   0.01565   0.00000   0.00000   0.00000
  26       11D+2       -0.00000   0.00000   0.00000  -0.00000   0.00000
  27       11D-2        0.00000   0.00000   0.00000   0.00000   0.00000
  28       12D 0        0.11385   0.00000   0.00000  -0.28967   0.00000
  29       12D+1        0.00000   0.00000  -0.00884   0.00000  -0.53766
  30       12D-1        0.00000  -0.00884   0.00000   0.00000   0.00000
  31       12D+2        0.00000   0.00000   0.00000  -0.00000   0.00000
  32       12D-2        0.00000   0.00000   0.00000   0.00000   0.00000
  33       13F 0       -0.00019   0.00000   0.00000  -0.00326   0.00000
  34       13F+1        0.00000   0.00000  -0.00399   0.00000  -0.00220
  35       13F-1        0.00000  -0.00399   0.00000   0.00000   0.00000
  36       13F+2        0.00000   0.00000   0.00000   0.00000   0.00000
  37       13F-2        0.00000   0.00000   0.00000   0.00000   0.00000
  38       13F+3        0.00000   0.00000   0.00000   0.00000   0.00000
  39       13F-3        0.00000  -0.00000   0.00000   0.00000   0.00000
  40       14F 0       -0.02482   0.00000   0.00000   0.02868   0.00000
  41       14F+1        0.00000   0.00000   0.00207   0.00000   0.05686
  42       14F-1        0.00000   0.00207   0.00000   0.00000   0.00000
  43       14F+2       -0.00000   0.00000   0.00000   0.00000   0.00000
  44       14F-2        0.00000   0.00000   0.00000   0.00000   0.00000
  45       14F+3        0.00000   0.00000  -0.00000   0.00000  -0.00000
  46       14F-3        0.00000   0.00000   0.00000   0.00000   0.00000
  47 2   N  1S          0.04039   0.00000   0.00000  -0.01242   0.00000
  48        2S         -0.13243   0.00000   0.00000   0.08499   0.00000
  49        3S         -0.05818   0.00000   0.00000   0.03380   0.00000
  50        4S         -0.70127   0.00000   0.00000   0.66246   0.00000
  51        5S          0.97665   0.00000   0.00000  -0.12518   0.00000
  52        6PX         0.00000   0.00000  -0.07458   0.00000   0.11073
  53        6PY         0.00000  -0.07458   0.00000   0.00000   0.00000
  54        6PZ         0.06793   0.00000   0.00000   0.01495   0.00000
  55        7PX         0.00000   0.00000  -0.06779   0.00000   0.11229
  56        7PY         0.00000  -0.06779   0.00000   0.00000   0.00000
  57        7PZ         0.03554   0.00000   0.00000   0.04714   0.00000
  58        8PX         0.00000   0.00000  -0.16315   0.00000  -0.61447
  59        8PY         0.00000  -0.16315   0.00000   0.00000   0.00000
  60        8PZ         0.37342   0.00000   0.00000  -0.32809   0.00000
  61        9PX         0.00000   0.00000   0.59280   0.00000  -2.72977
  62        9PY         0.00000   0.59280   0.00000   0.00000   0.00000
  63        9PZ        -0.35321   0.00000   0.00000  -1.97786   0.00000
  64       10D 0       -0.00408   0.00000   0.00000   0.00666   0.00000
  65       10D+1        0.00000   0.00000  -0.00623   0.00000  -0.00150
  66       10D-1        0.00000  -0.00623   0.00000   0.00000   0.00000
  67       10D+2       -0.00000   0.00000   0.00000  -0.00000   0.00000
  68       10D-2        0.00000   0.00000   0.00000   0.00000   0.00000
  69       11D 0        0.02752   0.00000   0.00000   0.01041   0.00000
  70       11D+1        0.00000   0.00000  -0.01565   0.00000  -0.04910
  71       11D-1        0.00000  -0.01565   0.00000   0.00000   0.00000
  72       11D+2       -0.00000   0.00000   0.00000  -0.00000   0.00000
  73       11D-2        0.00000   0.00000   0.00000   0.00000   0.00000
  74       12D 0        0.11385   0.00000   0.00000  -0.28967   0.00000
  75       12D+1        0.00000   0.00000   0.00884   0.00000  -0.53766
  76       12D-1        0.00000   0.00884   0.00000   0.00000   0.00000
  77       12D+2        0.00000   0.00000   0.00000  -0.00000   0.00000
  78       12D-2        0.00000   0.00000   0.00000   0.00000   0.00000
  79       13F 0        0.00019   0.00000   0.00000   0.00326   0.00000
  80       13F+1        0.00000   0.00000  -0.00399   0.00000   0.00220
  81       13F-1        0.00000  -0.00399   0.00000   0.00000   0.00000
  82       13F+2       -0.00000   0.00000   0.00000  -0.00000   0.00000
  83       13F-2        0.00000   0.00000   0.00000   0.00000   0.00000
  84       13F+3        0.00000   0.00000   0.00000   0.00000  -0.00000
  85       13F-3        0.00000  -0.00000   0.00000   0.00000   0.00000
  86       14F 0        0.02482   0.00000   0.00000  -0.02868   0.00000
  87       14F+1        0.00000   0.00000   0.00207   0.00000  -0.05686
  88       14F-1        0.00000   0.00207   0.00000   0.00000   0.00000
  89       14F+2        0.00000   0.00000   0.00000  -0.00000   0.00000
  90       14F-2        0.00000   0.00000   0.00000   0.00000   0.00000
  91       14F+3        0.00000   0.00000  -0.00000   0.00000   0.00000
  92       14F-3        0.00000   0.00000   0.00000   0.00000   0.00000
                          16        17        18        19        20
                       (PIG)--V  (SGU)--V  (DLTG)--  (DLTG)--  (SGG)--V
     Eigenvalues --     0.12814   0.21528   0.29142   0.29142   0.37090
   1 1   N  1S          0.00000   0.05031   0.00000  -0.00000   0.04930
   2        2S          0.00000  -0.12013   0.00000  -0.00000   0.03490
   3        3S          0.00000  -0.06146   0.00000  -0.00000   0.01858
   4        4S          0.00000   7.79009   0.00000  -0.00000   1.85617
   5        5S          0.00000  24.62840   0.00000   0.00000  -0.77548
   6        6PX         0.00000   0.00000   0.00000   0.00000   0.00000
   7        6PY        -0.11073   0.00000   0.00000   0.00000   0.00000
   8        6PZ         0.00000  -0.01492   0.00000   0.00000   0.05910
   9        7PX         0.00000   0.00000   0.00000   0.00000   0.00000
  10        7PY        -0.11229   0.00000   0.00000   0.00000   0.00000
  11        7PZ         0.00000  -0.33562   0.00000   0.00000  -0.04147
  12        8PX         0.00000   0.00000   0.00000   0.00000   0.00000
  13        8PY         0.61447   0.00000   0.00000   0.00000   0.00000
  14        8PZ         0.00000  -4.67408   0.00000  -0.00000   1.02714
  15        9PX         0.00000   0.00000   0.00000   0.00000   0.00000
  16        9PY         2.72977   0.00000   0.00000   0.00000   0.00000
  17        9PZ         0.00000  -5.25884   0.00000  -0.00000   1.83620
  18       10D 0        0.00000   0.00696   0.00000  -0.00000  -0.02278
  19       10D+1        0.00000   0.00000   0.00000   0.00000   0.00000
  20       10D-1       -0.00150   0.00000   0.00000   0.00000   0.00000
  21       10D+2        0.00000   0.00000   0.00000   0.02749   0.00000
  22       10D-2        0.00000   0.00000   0.02749   0.00000   0.00000
  23       11D 0        0.00000   0.25237   0.00000   0.00000  -0.07264
  24       11D+1        0.00000   0.00000   0.00000   0.00000   0.00000
  25       11D-1       -0.04910   0.00000   0.00000   0.00000   0.00000
  26       11D+2        0.00000  -0.00000   0.00000  -0.02191  -0.00000
  27       11D-2        0.00000   0.00000  -0.02191   0.00000   0.00000
  28       12D 0        0.00000   0.91708   0.00000   0.00000  -1.48233
  29       12D+1        0.00000   0.00000   0.00000   0.00000   0.00000
  30       12D-1       -0.53766   0.00000   0.00000   0.00000   0.00000
  31       12D+2        0.00000   0.00000   0.00000   0.54704   0.00000
  32       12D-2        0.00000   0.00000   0.54704   0.00000   0.00000
  33       13F 0        0.00000  -0.01762   0.00000  -0.00000  -0.00003
  34       13F+1        0.00000   0.00000   0.00000   0.00000   0.00000
  35       13F-1       -0.00220   0.00000   0.00000   0.00000   0.00000
  36       13F+2        0.00000   0.00000   0.00000  -0.00629   0.00000
  37       13F-2        0.00000   0.00000  -0.00629   0.00000   0.00000
  38       13F+3        0.00000   0.00000   0.00000   0.00000   0.00000
  39       13F-3       -0.00000   0.00000   0.00000   0.00000   0.00000
  40       14F 0        0.00000  -0.04143   0.00000  -0.00000   0.10896
  41       14F+1        0.00000   0.00000   0.00000   0.00000   0.00000
  42       14F-1        0.05686   0.00000   0.00000   0.00000   0.00000
  43       14F+2        0.00000  -0.00000   0.00000   0.00172  -0.00000
  44       14F-2        0.00000   0.00000   0.00172   0.00000   0.00000
  45       14F+3        0.00000   0.00000   0.00000   0.00000   0.00000
  46       14F-3        0.00000   0.00000   0.00000   0.00000   0.00000
  47 2   N  1S          0.00000  -0.05031   0.00000  -0.00000   0.04930
  48        2S          0.00000   0.12013   0.00000  -0.00000   0.03490
  49        3S          0.00000   0.06146   0.00000  -0.00000   0.01858
  50        4S          0.00000  -7.79009   0.00000  -0.00000   1.85617
  51        5S          0.00000 -24.62840   0.00000   0.00000  -0.77548
  52        6PX         0.00000   0.00000   0.00000   0.00000   0.00000
  53        6PY         0.11073   0.00000   0.00000   0.00000   0.00000
  54        6PZ         0.00000  -0.01492   0.00000  -0.00000  -0.05910
  55        7PX         0.00000   0.00000   0.00000   0.00000   0.00000
  56        7PY         0.11229   0.00000   0.00000   0.00000   0.00000
  57        7PZ         0.00000  -0.33562   0.00000  -0.00000   0.04147
  58        8PX         0.00000   0.00000   0.00000   0.00000   0.00000
  59        8PY        -0.61447   0.00000   0.00000   0.00000   0.00000
  60        8PZ         0.00000  -4.67408   0.00000   0.00000  -1.02714
  61        9PX         0.00000   0.00000   0.00000   0.00000   0.00000
  62        9PY        -2.72977   0.00000   0.00000   0.00000   0.00000
  63        9PZ         0.00000  -5.25884   0.00000   0.00000  -1.83620
  64       10D 0        0.00000  -0.00696   0.00000  -0.00000  -0.02278
  65       10D+1        0.00000   0.00000   0.00000   0.00000   0.00000
  66       10D-1       -0.00150   0.00000   0.00000   0.00000   0.00000
  67       10D+2        0.00000  -0.00000   0.00000   0.02749   0.00000
  68       10D-2        0.00000   0.00000   0.02749   0.00000   0.00000
  69       11D 0        0.00000  -0.25237   0.00000   0.00000  -0.07264
  70       11D+1        0.00000   0.00000   0.00000   0.00000   0.00000
  71       11D-1       -0.04910   0.00000   0.00000   0.00000   0.00000
  72       11D+2        0.00000   0.00000   0.00000  -0.02191  -0.00000
  73       11D-2        0.00000   0.00000  -0.02191   0.00000   0.00000
  74       12D 0        0.00000  -0.91708   0.00000   0.00000  -1.48233
  75       12D+1        0.00000   0.00000   0.00000   0.00000   0.00000
  76       12D-1       -0.53766   0.00000   0.00000   0.00000   0.00000
  77       12D+2        0.00000  -0.00000   0.00000   0.54704   0.00000
  78       12D-2        0.00000   0.00000   0.54704   0.00000   0.00000
  79       13F 0        0.00000  -0.01762   0.00000   0.00000   0.00003
  80       13F+1        0.00000   0.00000   0.00000   0.00000   0.00000
  81       13F-1        0.00220   0.00000   0.00000   0.00000   0.00000
  82       13F+2        0.00000   0.00000   0.00000   0.00629  -0.00000
  83       13F-2        0.00000   0.00000   0.00629   0.00000   0.00000
  84       13F+3        0.00000   0.00000   0.00000   0.00000   0.00000
  85       13F-3        0.00000   0.00000   0.00000   0.00000   0.00000
  86       14F 0        0.00000  -0.04143   0.00000   0.00000  -0.10896
  87       14F+1        0.00000   0.00000   0.00000   0.00000   0.00000
  88       14F-1       -0.05686   0.00000   0.00000   0.00000   0.00000
  89       14F+2        0.00000  -0.00000   0.00000  -0.00172   0.00000
  90       14F-2        0.00000   0.00000  -0.00172   0.00000   0.00000
  91       14F+3        0.00000   0.00000   0.00000   0.00000   0.00000
  92       14F-3       -0.00000   0.00000   0.00000   0.00000   0.00000
                          21        22        23        24        25
                       (SGU)--V  (PIU)--V  (PIU)--V  (PIG)--V  (PIG)--V
     Eigenvalues --     0.41139   0.45085   0.45085   0.45759   0.45759
   1 1   N  1S          0.02109   0.00000   0.00000   0.00000   0.00000
   2        2S         -0.09661   0.00000   0.00000   0.00000   0.00000
   3        3S         -0.02408   0.00000   0.00000   0.00000   0.00000
   4        4S          6.94478   0.00000   0.00000   0.00000   0.00000
   5        5S          1.94157   0.00000   0.00000   0.00000   0.00000
   6        6PX         0.00000   0.00000  -0.04037   0.14491   0.00000
   7        6PY         0.00000  -0.04037   0.00000   0.00000   0.14491
   8        6PZ         0.10776   0.00000   0.00000   0.00000   0.00000
   9        7PX         0.00000   0.00000  -0.07499   0.34317   0.00000
  10        7PY         0.00000  -0.07499   0.00000   0.00000   0.34317
  11        7PZ        -0.11562   0.00000   0.00000   0.00000   0.00000
  12        8PX         0.00000   0.00000   0.74198   4.95924   0.00000
  13        8PY         0.00000   0.74198   0.00000   0.00000   4.95924
  14        8PZ        -2.79266   0.00000   0.00000   0.00000   0.00000
  15        9PX         0.00000   0.00000  -0.29011   2.26204   0.00000
  16        9PY         0.00000  -0.29011   0.00000   0.00000   2.26204
  17        9PZ        -0.48959   0.00000   0.00000   0.00000   0.00000
  18       10D 0        0.02468   0.00000   0.00000   0.00000   0.00000
  19       10D+1        0.00000   0.00000   0.03085   0.00840   0.00000
  20       10D-1        0.00000   0.03085   0.00000   0.00000   0.00840
  21       10D+2        0.00000   0.00000   0.00000   0.00000   0.00000
  22       10D-2        0.00000   0.00000   0.00000   0.00000   0.00000
  23       11D 0        0.14890   0.00000   0.00000   0.00000   0.00000
  24       11D+1        0.00000   0.00000  -0.03763  -0.27232   0.00000
  25       11D-1        0.00000  -0.03763   0.00000   0.00000  -0.27232
  26       11D+2        0.00000   0.00000   0.00000   0.00000   0.00000
  27       11D-2        0.00000   0.00000   0.00000   0.00000   0.00000
  28       12D 0        1.56306   0.00000   0.00000   0.00000   0.00000
  29       12D+1        0.00000   0.00000   1.04688  -3.12121   0.00000
  30       12D-1        0.00000   1.04688   0.00000   0.00000  -3.12121
  31       12D+2       -0.00000   0.00000   0.00000   0.00000   0.00000
  32       12D-2        0.00000   0.00000   0.00000   0.00000   0.00000
  33       13F 0        0.00222   0.00000   0.00000   0.00000   0.00000
  34       13F+1        0.00000   0.00000   0.01001  -0.01368   0.00000
  35       13F-1        0.00000   0.01001   0.00000   0.00000  -0.01368
  36       13F+2        0.00000   0.00000   0.00000   0.00000   0.00000
  37       13F-2        0.00000   0.00000   0.00000   0.00000   0.00000
  38       13F+3        0.00000   0.00000  -0.00000   0.00000   0.00000
  39       13F-3        0.00000   0.00000   0.00000   0.00000  -0.00000
  40       14F 0       -0.11665   0.00000   0.00000   0.00000   0.00000
  41       14F+1        0.00000   0.00000  -0.11190   0.26469   0.00000
  42       14F-1        0.00000  -0.11190   0.00000   0.00000   0.26469
  43       14F+2       -0.00000   0.00000   0.00000   0.00000   0.00000
  44       14F-2        0.00000   0.00000   0.00000   0.00000   0.00000
  45       14F+3        0.00000   0.00000   0.00000  -0.00000   0.00000
  46       14F-3        0.00000  -0.00000   0.00000   0.00000   0.00000
  47 2   N  1S         -0.02109   0.00000   0.00000   0.00000   0.00000
  48        2S          0.09661   0.00000   0.00000   0.00000   0.00000
  49        3S          0.02408   0.00000   0.00000   0.00000   0.00000
  50        4S         -6.94478   0.00000   0.00000   0.00000   0.00000
  51        5S         -1.94157   0.00000   0.00000   0.00000   0.00000
  52        6PX         0.00000   0.00000  -0.04037  -0.14491   0.00000
  53        6PY         0.00000  -0.04037   0.00000   0.00000  -0.14491
  54        6PZ         0.10776   0.00000   0.00000   0.00000   0.00000
  55        7PX         0.00000   0.00000  -0.07499  -0.34317   0.00000
  56        7PY         0.00000  -0.07499   0.00000   0.00000  -0.34317
  57        7PZ        -0.11562   0.00000   0.00000   0.00000   0.00000
  58        8PX         0.00000   0.00000   0.74198  -4.95924   0.00000
  59        8PY         0.00000   0.74198   0.00000   0.00000  -4.95924
  60        8PZ        -2.79266   0.00000   0.00000   0.00000   0.00000
  61        9PX         0.00000   0.00000  -0.29011  -2.26204   0.00000
  62        9PY         0.00000  -0.29011   0.00000   0.00000  -2.26204
  63        9PZ        -0.48959   0.00000   0.00000   0.00000   0.00000
  64       10D 0       -0.02468   0.00000   0.00000   0.00000   0.00000
  65       10D+1        0.00000   0.00000  -0.03085   0.00840   0.00000
  66       10D-1        0.00000  -0.03085   0.00000   0.00000   0.00840
  67       10D+2       -0.00000   0.00000   0.00000   0.00000   0.00000
  68       10D-2        0.00000   0.00000   0.00000   0.00000   0.00000
  69       11D 0       -0.14890   0.00000   0.00000   0.00000   0.00000
  70       11D+1        0.00000   0.00000   0.03763  -0.27232   0.00000
  71       11D-1        0.00000   0.03763   0.00000   0.00000  -0.27232
  72       11D+2       -0.00000   0.00000   0.00000   0.00000   0.00000
  73       11D-2        0.00000   0.00000   0.00000   0.00000   0.00000
  74       12D 0       -1.56306   0.00000   0.00000   0.00000   0.00000
  75       12D+1        0.00000   0.00000  -1.04688  -3.12121   0.00000
  76       12D-1        0.00000  -1.04688   0.00000   0.00000  -3.12121
  77       12D+2        0.00000   0.00000   0.00000   0.00000   0.00000
  78       12D-2        0.00000   0.00000   0.00000   0.00000   0.00000
  79       13F 0        0.00222   0.00000   0.00000   0.00000   0.00000
  80       13F+1        0.00000   0.00000   0.01001   0.01368   0.00000
  81       13F-1        0.00000   0.01001   0.00000   0.00000   0.01368
  82       13F+2        0.00000   0.00000   0.00000   0.00000   0.00000
  83       13F-2        0.00000   0.00000   0.00000   0.00000   0.00000
  84       13F+3        0.00000   0.00000  -0.00000  -0.00000   0.00000
  85       13F-3        0.00000   0.00000   0.00000   0.00000   0.00000
  86       14F 0       -0.11665   0.00000   0.00000   0.00000   0.00000
  87       14F+1        0.00000   0.00000  -0.11190  -0.26469   0.00000
  88       14F-1        0.00000  -0.11190   0.00000   0.00000  -0.26469
  89       14F+2       -0.00000   0.00000   0.00000   0.00000   0.00000
  90       14F-2        0.00000   0.00000   0.00000   0.00000   0.00000
  91       14F+3        0.00000   0.00000   0.00000   0.00000   0.00000
  92       14F-3        0.00000  -0.00000   0.00000   0.00000  -0.00000
                          26        27        28        29        30
                       (DLTU)--  (DLTU)--  (PIU)--V  (PIU)--V  (SGG)--V
     Eigenvalues --     0.47132   0.47132   0.55491   0.55491   0.60207
   1 1   N  1S          0.00000   0.00000   0.00000   0.00000   0.08421
   2        2S          0.00000  -0.00000   0.00000   0.00000  -0.08952
   3        3S          0.00000  -0.00000   0.00000   0.00000   0.05652
   4        4S          0.00000  -0.00000   0.00000   0.00000   2.07789
   5        5S          0.00000  -0.00000   0.00000   0.00000  -1.07795
   6        6PX         0.00000   0.00000  -0.16726   0.00000   0.00000
   7        6PY         0.00000   0.00000   0.00000  -0.16726   0.00000
   8        6PZ         0.00000   0.00000   0.00000   0.00000  -0.14212
   9        7PX         0.00000   0.00000  -0.52720   0.00000   0.00000
  10        7PY         0.00000   0.00000   0.00000  -0.52720   0.00000
  11        7PZ         0.00000   0.00000   0.00000   0.00000  -0.55401
  12        8PX         0.00000   0.00000   0.72476   0.00000   0.00000
  13        8PY         0.00000   0.00000   0.00000   0.72476   0.00000
  14        8PZ         0.00000   0.00000   0.00000   0.00000   2.46512
  15        9PX         0.00000   0.00000  -0.32548   0.00000   0.00000
  16        9PY         0.00000   0.00000   0.00000  -0.32548   0.00000
  17        9PZ         0.00000   0.00000   0.00000   0.00000   0.14916
  18       10D 0        0.00000   0.00000   0.00000   0.00000   0.04089
  19       10D+1        0.00000   0.00000   0.00419   0.00000   0.00000
  20       10D-1        0.00000   0.00000   0.00000   0.00419   0.00000
  21       10D+2        0.00000   0.01716   0.00000   0.00000   0.00000
  22       10D-2        0.01716   0.00000   0.00000   0.00000   0.00000
  23       11D 0        0.00000  -0.00000   0.00000   0.00000  -0.28171
  24       11D+1        0.00000   0.00000   0.06560   0.00000   0.00000
  25       11D-1        0.00000   0.00000   0.00000   0.06560   0.00000
  26       11D+2        0.00000   0.00113   0.00000   0.00000  -0.00000
  27       11D-2        0.00113   0.00000   0.00000   0.00000   0.00000
  28       12D 0        0.00000  -0.00000   0.00000   0.00000  -0.94422
  29       12D+1        0.00000   0.00000  -0.40109   0.00000   0.00000
  30       12D-1        0.00000   0.00000   0.00000  -0.40109   0.00000
  31       12D+2        0.00000   1.53152   0.00000   0.00000   0.00000
  32       12D-2        1.53152   0.00000   0.00000   0.00000   0.00000
  33       13F 0        0.00000  -0.00000   0.00000   0.00000   0.00653
  34       13F+1        0.00000   0.00000  -0.00266   0.00000   0.00000
  35       13F-1        0.00000   0.00000   0.00000  -0.00266   0.00000
  36       13F+2        0.00000   0.02213   0.00000   0.00000   0.00000
  37       13F-2        0.02213   0.00000   0.00000   0.00000   0.00000
  38       13F+3        0.00000   0.00000   0.00000   0.00000   0.00000
  39       13F-3        0.00000   0.00000   0.00000  -0.00000   0.00000
  40       14F 0        0.00000   0.00000   0.00000   0.00000   0.21255
  41       14F+1        0.00000   0.00000   0.01557   0.00000   0.00000
  42       14F-1        0.00000   0.00000   0.00000   0.01557   0.00000
  43       14F+2        0.00000  -0.16730   0.00000   0.00000  -0.00000
  44       14F-2       -0.16730   0.00000   0.00000   0.00000   0.00000
  45       14F+3        0.00000   0.00000  -0.00000   0.00000   0.00000
  46       14F-3        0.00000   0.00000   0.00000   0.00000   0.00000
  47 2   N  1S          0.00000  -0.00000   0.00000   0.00000   0.08421
  48        2S          0.00000   0.00000   0.00000   0.00000  -0.08952
  49        3S          0.00000   0.00000   0.00000   0.00000   0.05652
  50        4S          0.00000   0.00000   0.00000   0.00000   2.07789
  51        5S          0.00000   0.00000   0.00000   0.00000  -1.07795
  52        6PX         0.00000   0.00000  -0.16726   0.00000   0.00000
  53        6PY         0.00000   0.00000   0.00000  -0.16726   0.00000
  54        6PZ         0.00000   0.00000   0.00000   0.00000   0.14212
  55        7PX         0.00000   0.00000  -0.52720   0.00000   0.00000
  56        7PY         0.00000   0.00000   0.00000  -0.52720   0.00000
  57        7PZ         0.00000   0.00000   0.00000   0.00000   0.55401
  58        8PX         0.00000   0.00000   0.72476   0.00000   0.00000
  59        8PY         0.00000   0.00000   0.00000   0.72476   0.00000
  60        8PZ         0.00000   0.00000   0.00000   0.00000  -2.46512
  61        9PX         0.00000   0.00000  -0.32548   0.00000   0.00000
  62        9PY         0.00000   0.00000   0.00000  -0.32548   0.00000
  63        9PZ         0.00000   0.00000   0.00000   0.00000  -0.14916
  64       10D 0        0.00000  -0.00000   0.00000   0.00000   0.04089
  65       10D+1        0.00000   0.00000  -0.00419   0.00000   0.00000
  66       10D-1        0.00000   0.00000   0.00000  -0.00419   0.00000
  67       10D+2        0.00000  -0.01716   0.00000   0.00000   0.00000
  68       10D-2       -0.01716   0.00000   0.00000   0.00000   0.00000
  69       11D 0        0.00000   0.00000   0.00000   0.00000  -0.28171
  70       11D+1        0.00000   0.00000  -0.06560   0.00000   0.00000
  71       11D-1        0.00000   0.00000   0.00000  -0.06560   0.00000
  72       11D+2        0.00000  -0.00113   0.00000   0.00000  -0.00000
  73       11D-2       -0.00113   0.00000   0.00000   0.00000   0.00000
  74       12D 0        0.00000   0.00000   0.00000   0.00000  -0.94422
  75       12D+1        0.00000   0.00000   0.40109   0.00000   0.00000
  76       12D-1        0.00000   0.00000   0.00000   0.40109   0.00000
  77       12D+2        0.00000  -1.53152   0.00000   0.00000   0.00000
  78       12D-2       -1.53152   0.00000   0.00000   0.00000   0.00000
  79       13F 0        0.00000  -0.00000   0.00000   0.00000  -0.00653
  80       13F+1        0.00000   0.00000  -0.00266   0.00000   0.00000
  81       13F-1        0.00000   0.00000   0.00000  -0.00266   0.00000
  82       13F+2        0.00000   0.02213   0.00000   0.00000  -0.00000
  83       13F-2        0.02213   0.00000   0.00000   0.00000   0.00000
  84       13F+3        0.00000   0.00000   0.00000   0.00000   0.00000
  85       13F-3        0.00000   0.00000   0.00000  -0.00000   0.00000
  86       14F 0        0.00000   0.00000   0.00000   0.00000  -0.21255
  87       14F+1        0.00000   0.00000   0.01557   0.00000   0.00000
  88       14F-1        0.00000   0.00000   0.00000   0.01557   0.00000
  89       14F+2        0.00000  -0.16730   0.00000   0.00000   0.00000
  90       14F-2       -0.16730   0.00000   0.00000   0.00000   0.00000
  91       14F+3        0.00000   0.00000  -0.00000   0.00000   0.00000
  92       14F-3        0.00000   0.00000   0.00000   0.00000   0.00000
                          31        32        33        34        35
                       (SGU)--V  (SGU)--V  (PIG)--V  (PIG)--V  (SGG)--V
     Eigenvalues --     0.61770   0.82256   0.88008   0.88008   1.03011
   1 1   N  1S         -0.09179   0.04693   0.00000   0.00000  -0.02529
   2        2S          0.29378  -0.03772   0.00000   0.00000   0.57024
   3        3S          0.06036  -0.05316   0.00000   0.00000   0.14186
   4        4S         25.56179   5.44486   0.00000   0.00000   0.87492
   5        5S         23.79459   8.91627   0.00000   0.00000  -0.47044
   6        6PX         0.00000   0.00000  -0.20301   0.00000   0.00000
   7        6PY         0.00000   0.00000   0.00000  -0.20301   0.00000
   8        6PZ        -0.03622   0.35291   0.00000   0.00000  -0.05704
   9        7PX         0.00000   0.00000  -0.16807   0.00000   0.00000
  10        7PY         0.00000   0.00000   0.00000  -0.16807   0.00000
  11        7PZ        -0.82349   0.32405   0.00000   0.00000  -0.16483
  12        8PX         0.00000   0.00000   9.43270   0.00000   0.00000
  13        8PY         0.00000   0.00000   0.00000   9.43270   0.00000
  14        8PZ       -13.79393  -3.84591   0.00000   0.00000   1.74212
  15        9PX         0.00000   0.00000   0.89040   0.00000   0.00000
  16        9PY         0.00000   0.00000   0.00000   0.89040   0.00000
  17        9PZ        -4.44922  -1.58598   0.00000   0.00000   0.90268
  18       10D 0       -0.01613   0.03292   0.00000   0.00000   0.01681
  19       10D+1        0.00000   0.00000   0.04058   0.00000   0.00000
  20       10D-1        0.00000   0.00000   0.00000   0.04058   0.00000
  21       10D+2        0.00000   0.00000   0.00000   0.00000   0.00000
  22       10D-2        0.00000   0.00000   0.00000   0.00000   0.00000
  23       11D 0        0.50746   0.48261   0.00000   0.00000   0.34567
  24       11D+1        0.00000   0.00000  -0.85102   0.00000   0.00000
  25       11D-1        0.00000   0.00000   0.00000  -0.85102   0.00000
  26       11D+2        0.00000   0.00000   0.00000   0.00000  -0.00000
  27       11D-2        0.00000   0.00000   0.00000   0.00000   0.00000
  28       12D 0        2.69224   0.05645   0.00000   0.00000  -1.49423
  29       12D+1        0.00000   0.00000  -3.95208   0.00000   0.00000
  30       12D-1        0.00000   0.00000   0.00000  -3.95208   0.00000
  31       12D+2        0.00000   0.00000   0.00000   0.00000   0.00000
  32       12D-2        0.00000   0.00000   0.00000   0.00000   0.00000
  33       13F 0       -0.03179  -0.04452   0.00000   0.00000   0.00459
  34       13F+1        0.00000   0.00000   0.03387   0.00000   0.00000
  35       13F-1        0.00000   0.00000   0.00000   0.03387   0.00000
  36       13F+2        0.00000   0.00000   0.00000   0.00000   0.00000
  37       13F-2        0.00000   0.00000   0.00000   0.00000   0.00000
  38       13F+3        0.00000   0.00000   0.00000   0.00000   0.00000
  39       13F-3        0.00000   0.00000   0.00000  -0.00000   0.00000
  40       14F 0       -0.09982   0.11991   0.00000   0.00000  -0.19428
  41       14F+1        0.00000   0.00000   0.47055   0.00000   0.00000
  42       14F-1        0.00000   0.00000   0.00000   0.47055   0.00000
  43       14F+2       -0.00000  -0.00000   0.00000   0.00000   0.00000
  44       14F-2        0.00000   0.00000   0.00000   0.00000   0.00000
  45       14F+3        0.00000   0.00000  -0.00000   0.00000   0.00000
  46       14F-3        0.00000   0.00000   0.00000   0.00000   0.00000
  47 2   N  1S          0.09179  -0.04693   0.00000   0.00000  -0.02529
  48        2S         -0.29378   0.03772   0.00000   0.00000   0.57024
  49        3S         -0.06036   0.05316   0.00000   0.00000   0.14186
  50        4S        -25.56179  -5.44486   0.00000   0.00000   0.87492
  51        5S        -23.79459  -8.91627   0.00000   0.00000  -0.47044
  52        6PX         0.00000   0.00000   0.20301   0.00000   0.00000
  53        6PY         0.00000   0.00000   0.00000   0.20301   0.00000
  54        6PZ        -0.03622   0.35291   0.00000   0.00000   0.05704
  55        7PX         0.00000   0.00000   0.16807   0.00000   0.00000
  56        7PY         0.00000   0.00000   0.00000   0.16807   0.00000
  57        7PZ        -0.82349   0.32405   0.00000   0.00000   0.16483
  58        8PX         0.00000   0.00000  -9.43270   0.00000   0.00000
  59        8PY         0.00000   0.00000   0.00000  -9.43270   0.00000
  60        8PZ       -13.79393  -3.84591   0.00000   0.00000  -1.74212
  61        9PX         0.00000   0.00000  -0.89040   0.00000   0.00000
  62        9PY         0.00000   0.00000   0.00000  -0.89040   0.00000
  63        9PZ        -4.44922  -1.58598   0.00000   0.00000  -0.90268
  64       10D 0        0.01613  -0.03292   0.00000   0.00000   0.01681
  65       10D+1        0.00000   0.00000   0.04058   0.00000   0.00000
  66       10D-1        0.00000   0.00000   0.00000   0.04058   0.00000
  67       10D+2       -0.00000  -0.00000   0.00000   0.00000   0.00000
  68       10D-2        0.00000   0.00000   0.00000   0.00000   0.00000
  69       11D 0       -0.50746  -0.48261   0.00000   0.00000   0.34567
  70       11D+1        0.00000   0.00000  -0.85102   0.00000   0.00000
  71       11D-1        0.00000   0.00000   0.00000  -0.85102   0.00000
  72       11D+2       -0.00000  -0.00000   0.00000   0.00000  -0.00000
  73       11D-2        0.00000   0.00000   0.00000   0.00000   0.00000
  74       12D 0       -2.69224  -0.05645   0.00000   0.00000  -1.49423
  75       12D+1        0.00000   0.00000  -3.95208   0.00000   0.00000
  76       12D-1        0.00000   0.00000   0.00000  -3.95208   0.00000
  77       12D+2       -0.00000  -0.00000   0.00000   0.00000   0.00000
  78       12D-2        0.00000   0.00000   0.00000   0.00000   0.00000
  79       13F 0       -0.03179  -0.04452   0.00000   0.00000  -0.00459
  80       13F+1        0.00000   0.00000  -0.03387   0.00000   0.00000
  81       13F-1        0.00000   0.00000   0.00000  -0.03387   0.00000
  82       13F+2        0.00000   0.00000   0.00000   0.00000  -0.00000
  83       13F-2        0.00000   0.00000   0.00000   0.00000   0.00000
  84       13F+3        0.00000   0.00000  -0.00000   0.00000   0.00000
  85       13F-3        0.00000   0.00000   0.00000   0.00000   0.00000
  86       14F 0       -0.09982   0.11991   0.00000   0.00000   0.19428
  87       14F+1        0.00000   0.00000  -0.47055   0.00000   0.00000
  88       14F-1        0.00000   0.00000   0.00000  -0.47055   0.00000
  89       14F+2       -0.00000  -0.00000   0.00000   0.00000  -0.00000
  90       14F-2        0.00000   0.00000   0.00000   0.00000   0.00000
  91       14F+3        0.00000   0.00000   0.00000   0.00000   0.00000
  92       14F-3        0.00000   0.00000   0.00000  -0.00000   0.00000
                          36        37        38        39        40
                       (DLTG)--  (DLTG)--  (PHIU)--  (PHIU)--  (PIU)--V
     Eigenvalues --     1.12461   1.12461   1.17573   1.17573   1.24774
   1 1   N  1S          0.00000  -0.00000   0.00000   0.00000   0.00000
   2        2S          0.00000   0.00000   0.00000   0.00000   0.00000
   3        3S          0.00000   0.00000   0.00000   0.00000   0.00000
   4        4S          0.00000   0.00000   0.00000   0.00000   0.00000
   5        5S          0.00000  -0.00000   0.00000   0.00000   0.00000
   6        6PX         0.00000   0.00000   0.00000   0.00000  -0.07389
   7        6PY         0.00000   0.00000  -0.00000   0.00000   0.00000
   8        6PZ         0.00000  -0.00000   0.00000   0.00000   0.00000
   9        7PX         0.00000   0.00000   0.00000  -0.00000   0.02476
  10        7PY         0.00000   0.00000   0.00000   0.00000   0.00000
  11        7PZ         0.00000  -0.00000   0.00000   0.00000   0.00000
  12        8PX         0.00000   0.00000   0.00000  -0.00000   0.29080
  13        8PY         0.00000   0.00000   0.00000   0.00000   0.00000
  14        8PZ         0.00000   0.00000   0.00000   0.00000   0.00000
  15        9PX         0.00000   0.00000   0.00000   0.00000  -0.08742
  16        9PY         0.00000   0.00000  -0.00000   0.00000   0.00000
  17        9PZ         0.00000   0.00000   0.00000   0.00000   0.00000
  18       10D 0        0.00000   0.00000   0.00000   0.00000   0.00000
  19       10D+1        0.00000   0.00000   0.00000   0.00000  -0.03197
  20       10D-1        0.00000   0.00000  -0.00000   0.00000   0.00000
  21       10D+2        0.00000   0.01426   0.00000   0.00000   0.00000
  22       10D-2        0.01426   0.00000   0.00000   0.00000   0.00000
  23       11D 0        0.00000   0.00000   0.00000   0.00000   0.00000
  24       11D+1        0.00000   0.00000   0.00000   0.00000  -0.69975
  25       11D-1        0.00000   0.00000  -0.00000   0.00000   0.00000
  26       11D+2        0.00000   0.65935   0.00000   0.00000   0.00000
  27       11D-2        0.65935   0.00000   0.00000   0.00000   0.00000
  28       12D 0        0.00000  -0.00000   0.00000   0.00000   0.00000
  29       12D+1        0.00000   0.00000   0.00000  -0.00000   0.85781
  30       12D-1        0.00000   0.00000   0.00000   0.00000   0.00000
  31       12D+2        0.00000  -0.39433   0.00000   0.00000   0.00000
  32       12D-2       -0.39433   0.00000   0.00000   0.00000   0.00000
  33       13F 0        0.00000   0.00000   0.00000   0.00000   0.00000
  34       13F+1        0.00000   0.00000   0.00000  -0.00000   0.03305
  35       13F-1        0.00000   0.00000   0.00000   0.00000   0.00000
  36       13F+2        0.00000   0.01235   0.00000   0.00000   0.00000
  37       13F-2        0.01235   0.00000   0.00000   0.00000   0.00000
  38       13F+3        0.00000   0.00000   0.00000  -0.06334  -0.00000
  39       13F-3        0.00000   0.00000  -0.06334   0.00000   0.00000
  40       14F 0        0.00000  -0.00000   0.00000   0.00000   0.00000
  41       14F+1        0.00000   0.00000   0.00000   0.00000  -0.47443
  42       14F-1        0.00000   0.00000  -0.00000   0.00000   0.00000
  43       14F+2        0.00000  -0.17558   0.00000   0.00000   0.00000
  44       14F-2       -0.17558   0.00000   0.00000   0.00000   0.00000
  45       14F+3        0.00000   0.00000   0.00000   0.61301   0.00000
  46       14F-3        0.00000   0.00000   0.61301   0.00000   0.00000
  47 2   N  1S          0.00000  -0.00000   0.00000   0.00000   0.00000
  48        2S          0.00000   0.00000   0.00000   0.00000   0.00000
  49        3S          0.00000   0.00000   0.00000   0.00000   0.00000
  50        4S          0.00000   0.00000   0.00000   0.00000   0.00000
  51        5S          0.00000  -0.00000   0.00000   0.00000   0.00000
  52        6PX         0.00000   0.00000   0.00000   0.00000  -0.07389
  53        6PY         0.00000   0.00000  -0.00000   0.00000   0.00000
  54        6PZ         0.00000   0.00000   0.00000   0.00000   0.00000
  55        7PX         0.00000   0.00000   0.00000  -0.00000   0.02476
  56        7PY         0.00000   0.00000   0.00000   0.00000   0.00000
  57        7PZ         0.00000   0.00000   0.00000   0.00000   0.00000
  58        8PX         0.00000   0.00000   0.00000  -0.00000   0.29080
  59        8PY         0.00000   0.00000   0.00000   0.00000   0.00000
  60        8PZ         0.00000  -0.00000   0.00000   0.00000   0.00000
  61        9PX         0.00000   0.00000   0.00000   0.00000  -0.08742
  62        9PY         0.00000   0.00000  -0.00000   0.00000   0.00000
  63        9PZ         0.00000  -0.00000   0.00000   0.00000   0.00000
  64       10D 0        0.00000   0.00000   0.00000   0.00000   0.00000
  65       10D+1        0.00000   0.00000   0.00000  -0.00000   0.03197
  66       10D-1        0.00000   0.00000   0.00000   0.00000   0.00000
  67       10D+2        0.00000   0.01426   0.00000   0.00000   0.00000
  68       10D-2        0.01426   0.00000   0.00000   0.00000   0.00000
  69       11D 0        0.00000   0.00000   0.00000   0.00000   0.00000
  70       11D+1        0.00000   0.00000   0.00000  -0.00000   0.69975
  71       11D-1        0.00000   0.00000   0.00000   0.00000   0.00000
  72       11D+2        0.00000   0.65935   0.00000   0.00000   0.00000
  73       11D-2        0.65935   0.00000   0.00000   0.00000   0.00000
  74       12D 0        0.00000  -0.00000   0.00000   0.00000   0.00000
  75       12D+1        0.00000   0.00000   0.00000   0.00000  -0.85781
  76       12D-1        0.00000   0.00000  -0.00000   0.00000   0.00000
  77       12D+2        0.00000  -0.39433   0.00000   0.00000   0.00000
  78       12D-2       -0.39433   0.00000   0.00000   0.00000   0.00000
  79       13F 0        0.00000  -0.00000   0.00000   0.00000   0.00000
  80       13F+1        0.00000   0.00000   0.00000  -0.00000   0.03305
  81       13F-1        0.00000   0.00000   0.00000   0.00000   0.00000
  82       13F+2        0.00000  -0.01235   0.00000   0.00000   0.00000
  83       13F-2       -0.01235   0.00000   0.00000   0.00000   0.00000
  84       13F+3        0.00000   0.00000   0.00000  -0.06334  -0.00000
  85       13F-3        0.00000   0.00000  -0.06334   0.00000   0.00000
  86       14F 0        0.00000   0.00000   0.00000   0.00000   0.00000
  87       14F+1        0.00000   0.00000   0.00000   0.00000  -0.47443
  88       14F-1        0.00000   0.00000  -0.00000   0.00000   0.00000
  89       14F+2        0.00000   0.17558   0.00000   0.00000   0.00000
  90       14F-2        0.17558   0.00000   0.00000   0.00000   0.00000
  91       14F+3        0.00000   0.00000   0.00000   0.61301   0.00000
  92       14F-3        0.00000   0.00000   0.61301   0.00000   0.00000
                          41        42        43        44        45
                       (PIU)--V  (DLTU)--  (DLTU)--  (SGU)--V  (SGG)--V
[...]
   6. LP (   1) N   1                / 60. RY*(  12) N   2                    0.32    1.97    0.032
   6. LP (   1) N   1                / 74. RY*(  26) N   2                    0.70    2.94    0.057
   6. LP (   1) N   1                / 77. RY*(  29) N   2                    0.29    4.05    0.043
   7. LP (   1) N   2                /  8. RY*(   1) N   1                    6.11    2.10    0.143
   7. LP (   1) N   2                / 10. RY*(   3) N   1                    0.29    7.01    0.057
   7. LP (   1) N   2                / 17. RY*(  10) N   1                    0.44    3.48    0.050
   7. LP (   1) N   2                / 18. RY*(  11) N   1                    1.14    3.49    0.080
   7. LP (   1) N   2                / 19. RY*(  12) N   1                    0.32    1.97    0.032
   7. LP (   1) N   2                / 33. RY*(  26) N   1                    0.70    2.94    0.057
   7. LP (   1) N   2                / 36. RY*(  29) N   1                    0.29    4.05    0.043
   7. LP (   1) N   2                / 49. RY*(   1) N   2                    0.80    2.10    0.052
   7. LP (   1) N   2                / 50. RY*(   2) N   2                    0.25    2.83    0.034
   7. LP (   1) N   2                / 58. RY*(  10) N   2                    0.33    3.48    0.043
   7. LP (   1) N   2                / 59. RY*(  11) N   2                    0.35    3.49    0.044


 Natural Bond Orbitals (Summary):

                                                            Principal Delocalizations
           NBO                        Occupancy    Energy   (geminal,vicinal,remote)
 ====================================================================================
 Molecular unit  1  (N2)
     1. BD (   1) N   1 - N   2          1.00000    -0.47621   
     2. BD (   2) N   1 - N   2          1.00000    -0.47621   
     3. BD (   3) N   1 - N   2          1.00000    -1.27842   
     4. CR (   1) N   1                  0.99986   -14.19782  49(v),50(v)
     5. CR (   1) N   2                  0.99986   -14.19782  8(v),9(v)
     6. LP (   1) N   1                  0.99620    -0.64499  49(v),59(v),8(g),74(v),58(v)
                                                    18(g),17(g),60(v),51(v)
                                                    77(v),9(g)
     7. LP (   1) N   2                  0.99620    -0.64499  8(v),18(v),49(g),33(v),17(v)
                                                    59(g),58(g),19(v),10(v)
                                                    36(v),50(g)
     8. RY*(   1) N   1                  0.00390     1.45851   
     9. RY*(   2) N   1                  0.00004     2.18613   
    10. RY*(   3) N   1                  0.00000     6.36228   
    11. RY*(   4) N   1                  0.00000     1.09441   
    12. RY*(   5) N   1                  0.00000     2.16412   
    13. RY*(   6) N   1                  0.00000     0.69240   
    14. RY*(   7) N   1                  0.00000     1.09441   
    15. RY*(   8) N   1                  0.00000     2.16412   
    16. RY*(   9) N   1                  0.00000     0.69240   
    17. RY*(  10) N   1                  0.00000     2.83836   
    18. RY*(  11) N   1                  0.00000     2.84934   
    19. RY*(  12) N   1                  0.00000     1.32319   
    20. RY*(  13) N   1                  0.00000     1.51426   
    21. RY*(  14) N   1                  0.00000     0.69827   
    22. RY*(  15) N   1                  0.00000     4.22959   
    23. RY*(  16) N   1                  0.00000     2.09595   
    24. RY*(  17) N   1                  0.00000     0.83289   
    25. RY*(  18) N   1                  0.00000     4.17264   
    26. RY*(  19) N   1                  0.00000     2.09595   
    27. RY*(  20) N   1                  0.00000     0.83289   
    28. RY*(  21) N   1                  0.00000     4.17264   
    29. RY*(  22) N   1                  0.00000     1.51426   
    30. RY*(  23) N   1                  0.00000     0.69827   
    31. RY*(  24) N   1                  0.00000     4.22959   
    32. RY*(  25) N   1                  0.00000     2.58122   
    33. RY*(  26) N   1                  0.00000     2.29746   
    34. RY*(  27) N   1                  0.00000     4.54255   
    35. RY*(  28) N   1                  0.00000     5.71347   
    36. RY*(  29) N   1                  0.00000     3.40887   
    37. RY*(  30) N   1                  0.00000     5.02309   
    38. RY*(  31) N   1                  0.00000     2.33554   
    39. RY*(  32) N   1                  0.00000     5.02309   
    40. RY*(  33) N   1                  0.00000     2.33554   
    41. RY*(  34) N   1                  0.00000     4.36641   
    42. RY*(  35) N   1                  0.00000     1.98796   
    43. RY*(  36) N   1                  0.00000     4.36641   
    44. RY*(  37) N   1                  0.00000     1.98796   
    45. RY*(  38) N   1                  0.00000     4.26531   
    46. RY*(  39) N   1                  0.00000     1.56747   
    47. RY*(  40) N   1                  0.00000     4.26531   
    48. RY*(  41) N   1                  0.00000     1.56747   
    49. RY*(   1) N   2                  0.00390     1.45851   
    50. RY*(   2) N   2                  0.00004     2.18613   
    51. RY*(   3) N   2                  0.00000     6.36228   
    52. RY*(   4) N   2                  0.00000     1.09441   
    53. RY*(   5) N   2                  0.00000     2.16412   
    54. RY*(   6) N   2                  0.00000     0.69240   
    55. RY*(   7) N   2                  0.00000     1.09441   
    56. RY*(   8) N   2                  0.00000     2.16412   
    57. RY*(   9) N   2                  0.00000     0.69240   
    58. RY*(  10) N   2                  0.00000     2.83836   
    59. RY*(  11) N   2                  0.00000     2.84934   
    60. RY*(  12) N   2                  0.00000     1.32319   
    61. RY*(  13) N   2                  0.00000     1.51426   
    62. RY*(  14) N   2                  0.00000     0.69827   
    63. RY*(  15) N   2                  0.00000     4.22959   
    64. RY*(  16) N   2                  0.00000     2.09595   
    65. RY*(  17) N   2                  0.00000     0.83289   
    66. RY*(  18) N   2                  0.00000     4.17264   
    67. RY*(  19) N   2                  0.00000     2.09595   
    68. RY*(  20) N   2                  0.00000     0.83289   
    69. RY*(  21) N   2                  0.00000     4.17264   
    70. RY*(  22) N   2                  0.00000     1.51426   
    71. RY*(  23) N   2                  0.00000     0.69827   
    72. RY*(  24) N   2                  0.00000     4.22959   
    73. RY*(  25) N   2                  0.00000     2.58122   
    74. RY*(  26) N   2                  0.00000     2.29746   
    75. RY*(  27) N   2                  0.00000     4.54255   
    76. RY*(  28) N   2                  0.00000     5.71347   
    77. RY*(  29) N   2                  0.00000     3.40887   
    78. RY*(  30) N   2                  0.00000     5.02309   
    79. RY*(  31) N   2                  0.00000     2.33554   
    80. RY*(  32) N   2                  0.00000     5.02309   
    81. RY*(  33) N   2                  0.00000     2.33554   
    82. RY*(  34) N   2                  0.00000     4.36641   
    83. RY*(  35) N   2                  0.00000     1.98796   
    84. RY*(  36) N   2                  0.00000     4.36641   
    85. RY*(  37) N   2                  0.00000     1.98796   
    86. RY*(  38) N   2                  0.00000     4.26531   
    87. RY*(  39) N   2                  0.00000     1.56747   
    88. RY*(  40) N   2                  0.00000     4.26531   
    89. RY*(  41) N   2                  0.00000     1.56747   
    90. BD*(   1) N   1 - N   2          0.00000     0.01660   
    91. BD*(   2) N   1 - N   2          0.00000     0.01660   
    92. BD*(   3) N   1 - N   2          0.00000     0.87169   
       -------------------------------
              Total Lewis    6.99211  ( 99.8874%)
        Valence non-Lewis    0.00000  (  0.0000%)
        Rydberg non-Lewis    0.00789  (  0.1126%)
       -------------------------------
            Total unit  1    7.00000  (100.0000%)
           Charge unit  1    0.00000
 Leave Link  607 at Fri Sep  6 10:30:35 2024, MaxMem=   104857600 cpu:               0.3 elap:               0.3
 (Enter /Users/asuyarger/Applications/G16/g16/l701.exe)
 ... and contract with generalized density number  0.
 Compute integral second derivatives.
 Leave Link  701 at Fri Sep  6 10:30:35 2024, MaxMem=   104857600 cpu:               0.1 elap:               0.1
 (Enter /Users/asuyarger/Applications/G16/g16/l702.exe)
 L702 exits ... SP integral derivatives will be done elsewhere.
 Leave Link  702 at Fri Sep  6 10:30:35 2024, MaxMem=   104857600 cpu:               0.0 elap:               0.0
 (Enter /Users/asuyarger/Applications/G16/g16/l703.exe)
 Integral derivatives from FoFJK, PRISM(SPDF).
 Compute integral second derivatives, UseDBF=F ICtDFT=           0.
 Calling FoFJK, ICntrl=    100127 FMM=F ISym2X=1 I1Cent= 0 IOpClX= 1 NMat=1 NMatS=1 NMatT=0.
 FoFJK:  IHMeth= 1 ICntrl=  100127 DoSepK=F KAlg= 0 I1Cent=           0 FoldK=F
 IRaf=         0 NMat=       1 IRICut=       1 DoRegI=T DoRafI=F ISym2E= 1 IDoP0=0 IntGTp=1.
 FoFCou: FMM=F IPFlag=           0 FMFlag=      100000 FMFlg1=         800
         NFxFlg=           0 DoJE=F BraDBF=F KetDBF=F FulRan=T
         wScrn=  0.000000 ICntrl=    100127 IOpCl=  1 I1Cent=           0 NGrid=           0
         NMat0=    1 NMatS0=      1 NMatT0=    0 NMatD0=    1 NMtDS0=    0 NMtDT0=    0
 Petite list used in FoFCou.
 Leave Link  703 at Fri Sep  6 10:30:38 2024, MaxMem=   104857600 cpu:               2.7 elap:               2.7
 (Enter /Users/asuyarger/Applications/G16/g16/l716.exe)
 Dipole        =-9.86076132D-32 2.31111593D-33 8.88178400D-16
 Polarizability= 1.03238863D+01 1.98294706D-18 1.03238863D+01
                -6.39390048D-16 3.93185968D-30 1.50750542D+01
 HyperPolar    =-1.32308024D-10 4.71754913D-12-4.17566249D-11
                 1.33720271D-11 9.14154216D-11 5.33746740D-12
                 2.64007599D-11-2.36136011D-11 7.70013384D-12
                 1.60445449D-10
 Full mass-weighted force constant matrix:
 Low frequencies ---   -1.5193   -1.5193   -0.0014   -0.0013    0.0004 2447.3248
 Diagonal vibrational polarizability:
        0.0000000       0.0000000       0.0000000
 Diagonal vibrational hyperpolarizability:
       -0.0000000      -0.0000000      -0.0000000
 Harmonic frequencies (cm**-1), IR intensities (KM/Mole), Raman scattering
 activities (A**4/AMU), depolarization ratios for plane and unpolarized
 incident light, reduced masses (AMU), force constants (mDyne/A),
 and normal coordinates:
                      1
                     SGG
 Frequencies --   2447.3248
 Red. masses --     14.0031
 Frc consts  --     49.4148
 IR Inten    --      0.0000
 Raman Activ --     23.9818
 Depolar (P) --      0.0908
 Depolar (U) --      0.1665
  Atom  AN      X      Y      Z
     1   7    -0.00   0.00   0.71
     2   7     0.00   0.00  -0.71

 -------------------
 - Thermochemistry -
 -------------------
 Temperature   298.150 Kelvin.  Pressure   1.00000 Atm.
 Atom     1 has atomic number  7 and mass  14.00307
 Atom     2 has atomic number  7 and mass  14.00307
 Molecular mass:    28.00615 amu.
 Principal axes and moments of inertia in atomic units:
                           1         2         3
     Eigenvalues --     0.00000  29.76943  29.76943
           X           -0.00000   1.00000  -0.00000
           Y            0.00000   0.00000   1.00000
           Z            1.00000   0.00000  -0.00000
 This molecule is a prolate symmetric top.
 Rotational symmetry number  2.
 Rotational temperature (Kelvin)      2.90949
 Rotational constant (GHZ):          60.623977
 Zero-point vibrational energy      14638.3 (Joules/Mol)
                                    3.49863 (Kcal/Mol)
 Vibrational temperatures:   3521.15
          (Kelvin)
 
 Zero-point correction=                           0.005575 (Hartree/Particle)
 Thermal correction to Energy=                    0.007936
 Thermal correction to Enthalpy=                  0.008880
 Thermal correction to Gibbs Free Energy=        -0.012850
 Sum of electronic and zero-point Energies=           -109.565010
 Sum of electronic and thermal Energies=              -109.562649
 Sum of electronic and thermal Enthalpies=            -109.561705
 Sum of electronic and thermal Free Energies=         -109.583435
 
                     E (Thermal)             CV                S
                      KCal/Mol        Cal/Mol-Kelvin    Cal/Mol-Kelvin
 Total                    4.980              4.970             45.734
 Electronic               0.000              0.000              0.000
 Translational            0.889              2.981             35.924
 Rotational               0.592              1.987              9.810
 Vibrational              3.499              0.002              0.000
                       Q            Log10(Q)             Ln(Q)
 Total Bot       0.813605D+06          5.910414         13.609230
 Total V=0       0.298487D+09          8.474925         19.514236
 Vib (Bot)       0.272579D-02         -2.564508         -5.904998
 Vib (V=0)       0.100001D+01          0.000003          0.000007
 Electronic      0.100000D+01          0.000000          0.000000
 Translational   0.582551D+07          6.765334         15.577757
 Rotational      0.512375D+02          1.709588          3.936471
 ***** Axes restored to original set *****
 -------------------------------------------------------------------
 Center     Atomic                   Forces (Hartrees/Bohr)
 Number     Number              X              Y              Z
 -------------------------------------------------------------------
      1        7           0.000000001    0.000000000   -0.000000000
      2        7          -0.000000001   -0.000000000    0.000000000
 -------------------------------------------------------------------
 Cartesian Forces:  Max     0.000000001 RMS     0.000000001
 Force constants in Cartesian coordinates: 
                1             2             3             4             5 
      1  0.158697D+01
      2  0.000000D+00  0.000000D+00
      3  0.000000D+00  0.000000D+00  0.000000D+00
      4 -0.158697D+01  0.000000D+00  0.000000D+00  0.158697D+01
      5  0.000000D+00  0.000000D+00  0.000000D+00  0.000000D+00  0.000000D+00
      6  0.000000D+00  0.000000D+00  0.000000D+00  0.000000D+00  0.000000D+00
                6 
      6  0.000000D+00
 FormGI is forming the generalized inverse of G from B-inverse, IUseBI=4.
 Force constants in internal coordinates: 
                1 
      1  0.158697D+01
 Leave Link  716 at Fri Sep  6 10:30:38 2024, MaxMem=   104857600 cpu:               0.0 elap:               0.0
 (Enter /Users/asuyarger/Applications/G16/g16/l103.exe)

 GradGradGradGradGradGradGradGradGradGradGradGradGradGradGradGradGradGrad
 Berny optimization.
 Red2BG is reusing G-inverse.
 Internal  Forces:  Max     0.000000001 RMS     0.000000001
 Search for a local minimum.
 Step number   1 out of a maximum of    2
 All quantities printed in internal units (Hartrees-Bohrs-Radians)
 Second derivative matrix not updated -- analytic derivatives used.
 The second derivative matrix:
                          R1
           R1           1.58697
 ITU=  0
     Eigenvalues ---    1.58697
 Angle between quadratic step and forces=  90.00 degrees.
 Linear search not attempted -- first point.
 Iteration  1 RMS(Cart)=  0.00000000 RMS(Int)=  0.00000000
 ITry= 1 IFail=0 DXMaxC= 3.89D-10 DCOld= 1.00D+10 DXMaxT= 3.00D-01 DXLimC= 3.00D+00 Rises=F
 ClnCor:  largest displacement from symmetrization is 2.38D-26 for atom     2.
 Variable       Old X    -DE/DX   Delta X   Delta X   Delta X     New X
                                 (Linear)    (Quad)   (Total)
    R1        2.06200   0.00000   0.00000   0.00000   0.00000   2.06200
         Item               Value     Threshold  Converged?
 Maximum Force            0.000000     0.000015     YES
 RMS     Force            0.000000     0.000010     YES
 Maximum Displacement     0.000000     0.000060     YES
 RMS     Displacement     0.000000     0.000040     YES
 Predicted change in Energy=-4.796362D-19
 Optimization completed.
    -- Stationary point found.
                           ----------------------------
                           !   Optimized Parameters   !
                           ! (Angstroms and Degrees)  !
 --------------------------                            --------------------------
 ! Name  Definition              Value          Derivative Info.                !
 --------------------------------------------------------------------------------
 ! R1    R(1,2)                  1.0912         -DE/DX =    0.0                 !
 --------------------------------------------------------------------------------
 GradGradGradGradGradGradGradGradGradGradGradGradGradGradGradGradGradGrad

 Leave Link  103 at Fri Sep  6 10:30:38 2024, MaxMem=   104857600 cpu:               0.0 elap:               0.0
 (Enter /Users/asuyarger/Applications/G16/g16/l9999.exe)
 Dipole is zero, so no output in dipole orientation.

 ----------------------------------------------------------------------

 Electric dipole moment (input orientation):
 (Debye = 10**-18 statcoulomb cm , SI units = C m)
                  (au)            (Debye)         (10**-30 SI)
   Tot        0.000000D+00      0.000000D+00      0.000000D+00
   x          0.000000D+00      0.000000D+00      0.000000D+00
   y          0.000000D+00      0.000000D+00      0.000000D+00
   z          0.000000D+00      0.000000D+00      0.000000D+00

 Dipole polarizability, Alpha (input orientation).
 (esu units = cm**3 , SI units = C**2 m**2 J**-1)
 Alpha(0;0):
               (au)            (10**-24 esu)      (10**-40 SI)
   iso        0.119076D+02      0.176453D+01      0.196330D+01
   aniso      0.475117D+01      0.704050D+00      0.783362D+00
   xx         0.150751D+02      0.223389D+01      0.248554D+01
   yx         0.000000D+00      0.000000D+00      0.000000D+00
   yy         0.103239D+02      0.152984D+01      0.170218D+01
   zx         0.000000D+00      0.000000D+00      0.000000D+00
   zy         0.000000D+00      0.000000D+00      0.000000D+00
   zz         0.103239D+02      0.152984D+01      0.170218D+01

 ----------------------------------------------------------------------
 1\1\GINC-JEFFSMACSTUDIO\Freq\UB3LYP\Aug-CC-pVTZ\N2\ROOT\06-Sep-2024\0\
 \#P Geom=AllCheck Guess=TCheck SCRF=Check GenChk UB3LYP/Aug-CC-pVTZ Fr
 eq\\N2 DFT uB3LPY aug-cc-pVTZ Opt Freq - Full - NBO\\0,1\N,1.039364521
 ,0.17179023,0.\N,-0.051798641,0.17179023,0.\\Version=EM64M-G16RevA.03\
 State=1-SGG\HF=-109.5705854\S2=0.\S2-1=0.\S2A=0.\RMSD=6.250e-11\RMSF=7
 .124e-10\ZeroPoint=0.0055754\Thermal=0.007936\Dipole=0.,0.,0.\DipoleDe
 riv=0.,0.,0.,0.,0.,0.,0.,0.,0.,0.,0.,0.,0.,0.,0.,0.,0.,0.\Polar=15.075
 0542,0.,10.3238863,0.,0.,10.3238863\PolarDeriv=11.3307372,0.,3.6227214
 ,0.,0.,3.6227214,0.,2.304196,0.,0.,0.,0.,0.,0.,0.,2.304196,0.,0.,-11.3
 307372,0.,-3.6227214,0.,0.,-3.6227214,0.,-2.304196,0.,0.,0.,0.,0.,0.,0
 .,-2.304196,0.,0.\HyperPolar=0.,0.,0.,0.,0.,0.,0.,0.,0.,0.\Quadrupole=
 -0.7445146,0.3722573,0.3722573,0.,0.,0.\PG=D*H [C*(N1.N1)]\NImag=0\\1.
 58696761,0.,-0.00000061,0.,0.,-0.00000061,-1.58696761,0.,0.,1.58696761
 ,0.,0.00000061,0.,0.,-0.00000061,0.,0.,0.00000061,0.,0.,-0.00000061\\0
 .,0.,0.,0.,0.,0.\\\@


  THE LARGE PRINT GIVETH,
  AND THE SMALL PRINT TAKETH AWAY.

                     -- TOM WAITS
 Job cpu time:       0 days  0 hours  0 minutes 15.2 seconds.
 Elapsed time:       0 days  0 hours  0 minutes 15.0 seconds.
 File lengths (MBytes):  RWF=     12 Int=      0 D2E=      0 Chk=      2 Scr=      1
 Normal termination of Gaussian 16 at Fri Sep  6 10:30:38 2024.
