 Entering Gaussian System, Link 0=g16
 Input=/Users/asuyarger/Downloads/N2_PM6_Opt_Freq_Full.gjf
 Output=/Users/asuyarger/Downloads/N2_PM6_Opt_Freq_Full.log
 Initial command:
 /Users/asuyarger/Applications/G16/g16/l1.exe "/Users/asuyarger/Applications/G16/scratch/Gau-88460.inp" -scrdir="/Users/asuyarger/Applications/G16/scratch/"
 Entering Link 1 = /Users/asuyarger/Applications/G16/g16/l1.exe PID=     88461.
  
 Copyright (c) 1988,1990,1992,1993,1995,1998,2003,2009,2016,
            Gaussian, Inc.  All Rights Reserved.
  
 This is part of the Gaussian(R) 16 program.  It is based on
 the Gaussian(R) 09 system (copyright 2009, Gaussian, Inc.),
 the Gaussian(R) 03 system (copyright 2003, Gaussian, Inc.),
 the Gaussian(R) 98 system (copyright 1998, Gaussian, Inc.),
 the Gaussian(R) 94 system (copyright 1995, Gaussian, Inc.),
 the Gaussian 92(TM) system (copyright 1992, Gaussian, Inc.),
 the Gaussian 90(TM) system (copyright 1990, Gaussian, Inc.),
 the Gaussian 88(TM) system (copyright 1988, Gaussian, Inc.),
 the Gaussian 86(TM) system (copyright 1986, Carnegie Mellon
 University), and the Gaussian 82(TM) system (copyright 1983,
 Carnegie Mellon University). Gaussian is a federally registered
 trademark of Gaussian, Inc.
  
 This software contains proprietary and confidential information,
 including trade secrets, belonging to Gaussian, Inc.
  
 This software is provided under written license and may be
 used, copied, transmitted, or stored only in accord with that
 written license.
  
 The following legend is applicable only to US Government
 contracts under FAR:
  
                    RESTRICTED RIGHTS LEGEND
  
 Use, reproduction and disclosure by the US Government is
 subject to restrictions as set forth in subparagraphs (a)
 and (c) of the Commercial Computer Software - Restricted
 Rights clause in FAR 52.227-19.
  
 Gaussian, Inc.
 340 Quinnipiac St., Bldg. 40, Wallingford CT 06492
  
  
 ---------------------------------------------------------------
 Warning -- This program may not be used in any manner that
 competes with the business of Gaussian, Inc. or will provide
 assistance to any competitor of Gaussian, Inc.  The licensee
 of this program is prohibited from giving any competitor of
 Gaussian, Inc. access to this program.  By using this program,
 the user acknowledges that Gaussian, Inc. is engaged in the
 business of creating and licensing software in the field of
 computational chemistry and represents and warrants to the
 licensee that it is not a competitor of Gaussian, Inc. and that
 it will not use this program in any manner prohibited above.
 ---------------------------------------------------------------
  

 Cite this work as:
 Gaussian 16, Revision A.03,
 M. J. Frisch, G. W. Trucks, H. B. Schlegel, G. E. Scuseria, 
 M. A. Robb, J. R. Cheeseman, G. Scalmani, V. Barone, 
 G. A. Petersson, H. Nakatsuji, X. Li, M. Caricato, A. V. Marenich, 
 J. Bloino, B. G. Janesko, R. Gomperts, B. Mennucci, H. P. Hratchian, 
 J. V. Ortiz, A. F. Izmaylov, J. L. Sonnenberg, D. Williams-Young, 
 F. Ding, F. Lipparini, F. Egidi, J. Goings, B. Peng, A. Petrone, 
 T. Henderson, D. Ranasinghe, V. G. Zakrzewski, J. Gao, N. Rega, 
 G. Zheng, W. Liang, M. Hada, M. Ehara, K. Toyota, R. Fukuda, 
 J. Hasegawa, M. Ishida, T. Nakajima, Y. Honda, O. Kitao, H. Nakai, 
 T. Vreven, K. Throssell, J. A. Montgomery, Jr., J. E. Peralta, 
 F. Ogliaro, M. J. Bearpark, J. J. Heyd, E. N. Brothers, K. N. Kudin, 
 V. N. Staroverov, T. A. Keith, R. Kobayashi, J. Normand, 
 K. Raghavachari, A. P. Rendell, J. C. Burant, S. S. Iyengar, 
 J. Tomasi, M. Cossi, J. M. Millam, M. Klene, C. Adamo, R. Cammi, 
 J. W. Ochterski, R. L. Martin, K. Morokuma, O. Farkas, 
 J. B. Foresman, and D. J. Fox, Gaussian, Inc., Wallingford CT, 2016.
 
 ******************************************
 Gaussian 16:  EM64M-G16RevA.03 25-Dec-2016
                 6-Sep-2024 
 ******************************************
 %chk=N2_PM6_Opt_Freq_Full.chk
 ----------------------------------------------------------------------
 #p opt freq=raman pm6 guess=save pop=(hirshfeld,full) geom=connectivit
 y polar
 ----------------------------------------------------------------------
 1/18=20,19=15,26=1,38=1,57=2/1,3;
 2/9=110,12=2,17=6,18=5,40=1/2;
 3/5=2,25=1,41=3900000,71=1/1,2,3;
 4/35=1/1;
 5/5=2,35=1,38=5,98=1/2;
 6/7=3,28=1,79=1/1;
 7//1,2,3,16;
 1/18=20,19=15,26=1/3(2);
 2/9=110/2;
 99//99;
 2/9=110/2;
 3/5=2,25=1,41=3900000,71=1,135=20/1,2,3;
 4/5=5,16=3,35=1/1;
 5/5=2,35=1,38=5,98=1/2;
 7//1,2,3,16;
 1/18=20,19=15,26=1/3(-5);
 2/9=110/2;
 6/7=3,19=2,28=1,79=1/1;
 99/9=1/99;
 Leave Link    1 at Fri Sep  6 09:46:15 2024, MaxMem=           0 cpu:               0.0 elap:               0.0
 (Enter /Users/asuyarger/Applications/G16/g16/l101.exe)
 ---------------
 N2 Opt Freq PM6
 ---------------
 Symbolic Z-matrix:
 Charge =  0 Multiplicity = 1
 N                     0.63322   0.52632   0. 
 N                    -0.45878   0.52632   0. 
 
 ITRead=  0  0
 MicOpt= -1 -1
 NAtoms=      2 NQM=        2 NQMF=       0 NMMI=      0 NMMIF=      0
                NMic=       0 NMicF=      0.
                    Isotopes and Nuclear Properties:
 (Nuclear quadrupole moments (NQMom) in fm**2, nuclear magnetic moments (NMagM)
  in nuclear magnetons)

  Atom         1           2
 IAtWgt=          14          14
 AtmWgt=  14.0030740  14.0030740
 NucSpn=           2           2
 AtZEff=  -0.0000000  -0.0000000
 NQMom=    2.0440000   2.0440000
 NMagM=    0.4037610   0.4037610
 AtZNuc=   7.0000000   7.0000000
 Leave Link  101 at Fri Sep  6 09:46:15 2024, MaxMem=   104857600 cpu:               0.1 elap:               0.1
 (Enter /Users/asuyarger/Applications/G16/g16/l103.exe)

 GradGradGradGradGradGradGradGradGradGradGradGradGradGradGradGradGradGrad
 Berny optimization.
 Initialization pass.
                           ----------------------------
                           !    Initial Parameters    !
                           ! (Angstroms and Degrees)  !
 --------------------------                            --------------------------
 ! Name  Definition              Value          Derivative Info.                !
 --------------------------------------------------------------------------------
 ! R1    R(1,2)                  1.092          estimate D2E/DX2                !
 --------------------------------------------------------------------------------
 Trust Radius=3.00D-01 FncErr=1.00D-07 GrdErr=1.00D-07 EigMax=2.50D+02 EigMin=1.00D-04
 Number of steps in this run=     20 maximum allowed number of steps=    100.
 GradGradGradGradGradGradGradGradGradGradGradGradGradGradGradGradGradGrad

 Leave Link  103 at Fri Sep  6 09:46:15 2024, MaxMem=   104857600 cpu:               0.0 elap:               0.0
 (Enter /Users/asuyarger/Applications/G16/g16/l202.exe)
                          Input orientation:                          
 ---------------------------------------------------------------------
 Center     Atomic      Atomic             Coordinates (Angstroms)
 Number     Number       Type             X           Y           Z
 ---------------------------------------------------------------------
      1          7           0        0.633224    0.526316    0.000000
      2          7           0       -0.458776    0.526316    0.000000
 ---------------------------------------------------------------------
 Stoichiometry    N2
 Framework group  D*H[C*(N.N)]
 Deg. of freedom     1
 Full point group                 D*H     NOp   8
 Largest Abelian subgroup         D2H     NOp   8
 Largest concise Abelian subgroup C2      NOp   2
                         Standard orientation:                         
 ---------------------------------------------------------------------
 Center     Atomic      Atomic             Coordinates (Angstroms)
 Number     Number       Type             X           Y           Z
 ---------------------------------------------------------------------
      1          7           0        0.000000    0.000000    0.546000
      2          7           0        0.000000    0.000000   -0.546000
 ---------------------------------------------------------------------
 Rotational constants (GHZ):           0.0000000          60.5310956          60.5310956
 Leave Link  202 at Fri Sep  6 09:46:15 2024, MaxMem=   104857600 cpu:               0.0 elap:               0.0
 (Enter /Users/asuyarger/Applications/G16/g16/l301.exe)
 Standard basis: VSTO-6G (5D, 7F)
 Ernie: Thresh=  0.10000D-02 Tol=  0.10000D-05 Strict=F.
  NNHCO=     0 NNPyr=     0 NCTC=     0               EPep=         0.000000000
    EC=         8.283959494  ECS=         0.671812109   EG=        -0.002006207
   EHC=         0.001256006  EAt=       -12.858694572  AtH=         0.360153925
 EPDDG=         0.000000000  ECC=         8.955021403 EAtT=        13.218848496
 There are     2 symmetry adapted cartesian basis functions of AG  symmetry.
 There are     0 symmetry adapted cartesian basis functions of B1G symmetry.
 There are     1 symmetry adapted cartesian basis functions of B2G symmetry.
 There are     1 symmetry adapted cartesian basis functions of B3G symmetry.
 There are     0 symmetry adapted cartesian basis functions of AU  symmetry.
 There are     2 symmetry adapted cartesian basis functions of B1U symmetry.
 There are     1 symmetry adapted cartesian basis functions of B2U symmetry.
 There are     1 symmetry adapted cartesian basis functions of B3U symmetry.
 There are     2 symmetry adapted basis functions of AG  symmetry.
 There are     0 symmetry adapted basis functions of B1G symmetry.
 There are     1 symmetry adapted basis functions of B2G symmetry.
 There are     1 symmetry adapted basis functions of B3G symmetry.
 There are     0 symmetry adapted basis functions of AU  symmetry.
 There are     2 symmetry adapted basis functions of B1U symmetry.
 There are     1 symmetry adapted basis functions of B2U symmetry.
 There are     1 symmetry adapted basis functions of B3U symmetry.
     8 basis functions,    48 primitive gaussians,     8 cartesian basis functions
     5 alpha electrons        5 beta electrons
       nuclear repulsion energy        22.1738698996 Hartrees.
 IExCor=    0 DFT=F Ex=HF Corr=None ExCW=0 ScaHFX=  1.000000
 ScaDFX=  1.000000  1.000000  1.000000  1.000000 ScalE2=  1.000000  1.000000
 IRadAn=      5 IRanWt=     -1 IRanGd=            0 ICorTp=0 IEmpDi=  4
 Integral buffers will be    131072 words long.
 Regular integral format.
 Two-electron integral symmetry is turned off.
 Leave Link  301 at Fri Sep  6 09:46:15 2024, MaxMem=   104857600 cpu:               0.0 elap:               0.0
 (Enter /Users/asuyarger/Applications/G16/g16/l302.exe)
 Do NDO integrals.
 NPDir=0 NMtPBC=     1 NCelOv=     1 NCel=       1 NClECP=     1 NCelD=      1
         NCelK=      1 NCelE2=     1 NClLst=     1 CellRange=     0.0.
 One-electron integrals computed using PRISM.
 NBasis=     8 RedAO= T EigKep=  1.00D+00  NBF=     2     0     1     1     0     2     1     1
 NBsUse=     8 1.00D-06 EigRej= -1.00D+00 NBFU=     2     0     1     1     0     2     1     1
 Leave Link  302 at Fri Sep  6 09:46:15 2024, MaxMem=   104857600 cpu:               0.0 elap:               0.0
 (Enter /Users/asuyarger/Applications/G16/g16/l303.exe)
 DipDrv:  MaxL=1.
 Leave Link  303 at Fri Sep  6 09:46:15 2024, MaxMem=   104857600 cpu:               0.0 elap:               0.0
 (Enter /Users/asuyarger/Applications/G16/g16/l401.exe)
 Simple Huckel Guess.
 JPrj=0 DoOrth=F DoCkMO=F.
 Initial guess orbital symmetries:
       Occupied  (SGG) (SGU) (PIU) (PIU) (SGG)
       Virtual   (PIG) (PIG) (SGU)
 The electronic state of the initial guess is 1-SGG.
 Leave Link  401 at Fri Sep  6 09:46:15 2024, MaxMem=   104857600 cpu:               0.0 elap:               0.0
 (Enter /Users/asuyarger/Applications/G16/g16/l502.exe)
 Keep J ints in memory in canonical form, NReq=859239.
 FoFCou: FMM=F IPFlag=           0 FMFlag=           0 FMFlg1=           0
         NFxFlg=           0 DoJE=F BraDBF=F KetDBF=F FulRan=T
         wScrn=  0.000000 ICntrl=       600 IOpCl=  2 I1Cent=           0 NGrid=           0
         NMat0=    1 NMatS0=     20 NMatT0=    0 NMatD0=    1 NMtDS0=    0 NMtDT0=    0
 Symmetry not used in FoFCou.
 Two-electron integral symmetry not used.
 Closed shell SCF:
 Using DIIS extrapolation, IDIIS=  1040.
 Overlap will be assumed to be unity.
 NGot=   104857600 LenX=   104797164 LenY=   104796282
 Requested convergence on RMS density matrix=1.00D-08 within 128 cycles.
 Requested convergence on MAX density matrix=1.00D-06.
 Requested convergence on             energy=1.00D-06.
 No special actions if energy rises.

 Cycle   1  Pass 1  IDiag  1:
 E= 0.181197497372931    
 DIIS: error= 4.32D-02 at cycle   1 NSaved=   1.
 NSaved= 1 IEnMin= 1 EnMin= 0.181197497372931     IErMin= 1 ErrMin= 4.32D-02
 ErrMax= 4.32D-02  0.00D+00 EMaxC= 1.00D-01 BMatC= 2.99D-02 BMatP= 2.99D-02
 IDIUse=3 WtCom= 5.68D-01 WtEn= 4.32D-01
 Coeff-Com:  0.100D+01
 Coeff-En:   0.100D+01
 Coeff:      0.100D+01
 GapD=    2.000 DampG=2.000 DampE=0.500 DampFc=1.0000 IDamp=-1.
 RMSDP=4.06D-02 MaxDP=1.12D-01              OVMax= 0.00D+00

 Cycle   2  Pass 1  IDiag  1:
 E= 0.750832952583984E-01 Delta-E=       -0.106114202115 Rises=F Damp=F
 DIIS: error= 1.27D-02 at cycle   2 NSaved=   2.
 NSaved= 2 IEnMin= 2 EnMin= 0.750832952583984E-01 IErMin= 2 ErrMin= 1.27D-02
 ErrMax= 1.27D-02  0.00D+00 EMaxC= 1.00D-01 BMatC= 2.58D-03 BMatP= 2.99D-02
 IDIUse=3 WtCom= 8.73D-01 WtEn= 1.27D-01
 Coeff-Com: -0.416D+00 0.142D+01
 Coeff-En:   0.000D+00 0.100D+01
 Coeff:     -0.363D+00 0.136D+01
 RMSDP=1.48D-02 MaxDP=3.60D-02 DE=-1.06D-01 OVMax= 0.00D+00

 Cycle   3  Pass 1  IDiag  3:
 E= 0.664624097617263E-01 Delta-E=       -0.008620885497 Rises=F Damp=F
 DIIS: error= 7.28D-05 at cycle   3 NSaved=   3.
 NSaved= 3 IEnMin= 3 EnMin= 0.664624097617263E-01 IErMin= 3 ErrMin= 7.28D-05
 ErrMax= 7.28D-05  0.00D+00 EMaxC= 1.00D-01 BMatC= 8.48D-08 BMatP= 2.58D-03
 IDIUse=1 WtCom= 1.00D+00 WtEn= 0.00D+00
 Large coefficients: NSaved=  3 BigCof=    0.00 CofMax=   10.00 Det= 8.67D-19
 Inversion failed.  Reducing to  2 matrices.
 Coeff-Com: -0.577D-02 0.101D+01
 Coeff:     -0.577D-02 0.101D+01
 Fock symm off for IB=6 I1=    1 I=    5 J=    1 Cut=1.00D-07 Err=2.71D-03
 Fock matrix is not symmetric: symmetry in diagonalization turned off.
 Gap=     0.474 Goal=   None    Shift=    0.000
 RMSDP=8.44D-05 MaxDP=1.94D-04 DE=-8.62D-03 OVMax= 4.77D-04

 Cycle   4  Pass 1  IDiag  3:
 E= 0.664621341685887E-01 Delta-E=       -0.000000275593 Rises=F Damp=F
 DIIS: error= 6.19D-07 at cycle   4 NSaved=   3.
 NSaved= 3 IEnMin= 3 EnMin= 0.664621341685887E-01 IErMin= 3 ErrMin= 6.19D-07
 ErrMax= 6.19D-07  0.00D+00 EMaxC= 1.00D-01 BMatC= 6.13D-12 BMatP= 8.48D-08
 IDIUse=1 WtCom= 1.00D+00 WtEn= 0.00D+00
 Large coefficients: NSaved=  3 BigCof=    0.00 CofMax=   10.00 Det= 0.00D+00
 Inversion failed.  Reducing to  2 matrices.
 Coeff-Com:  0.843D-02 0.992D+00
 Coeff:      0.843D-02 0.992D+00
 Gap=     0.474 Goal=   None    Shift=    0.000
 RMSDP=7.11D-07 MaxDP=1.64D-06 DE=-2.76D-07 OVMax= 4.02D-06

 Cycle   5  Pass 1  IDiag  3:
 E= 0.664621341486722E-01 Delta-E=       -0.000000000020 Rises=F Damp=F
 DIIS: error= 2.97D-11 at cycle   5 NSaved=   3.
 NSaved= 3 IEnMin= 3 EnMin= 0.664621341486722E-01 IErMin= 3 ErrMin= 2.97D-11
 ErrMax= 2.97D-11  0.00D+00 EMaxC= 1.00D-01 BMatC= 1.41D-20 BMatP= 6.13D-12
 IDIUse=1 WtCom= 1.00D+00 WtEn= 0.00D+00
 Large coefficients: NSaved=  3 BigCof=    0.00 CofMax=   10.00 Det= 0.00D+00
 Inversion failed.  Reducing to  2 matrices.
 Coeff-Com:  0.479D-04 0.100D+01
 Coeff:      0.479D-04 0.100D+01
 Gap=     0.474 Goal=   None    Shift=    0.000
 RMSDP=3.41D-11 MaxDP=7.85D-11 DE=-1.99D-11 OVMax= 1.93D-10

 Cycle   6  Pass 2  IDiag  1:
 SCF Done:  E(RPM6) =  0.664621341487E-01 A.U. after    6 cycles
            NFock=  5  Conv=0.34D-10     -V/T= 1.0032
 KE=-2.076082000713D+01 PE=-1.584010511526D+01 EE= 1.449351735693D+01
 Leave Link  502 at Fri Sep  6 09:46:15 2024, MaxMem=   104857600 cpu:               0.0 elap:               0.0
 (Enter /Users/asuyarger/Applications/G16/g16/l601.exe)
 Copying SCF densities to generalized density rwf, IOpCl= 0 IROHF=0.

 **********************************************************************

            Population analysis using the SCF density.

 **********************************************************************

 Orbital symmetries:
       Occupied  (SGG) (SGU) (PIU) (PIU) (SGG)
       Virtual   (PIG) (PIG) (SGU)
 The electronic state is 1-SGG.
 Alpha  occ. eigenvalues --   -1.40478  -0.69081  -0.62209  -0.62209  -0.46718
 Alpha virt. eigenvalues --    0.00672   0.00672   0.13011
     Molecular Orbital Coefficients:
                           1         2         3         4         5
                       (SGG)--O  (SGU)--O  (PIU)--O  (PIU)--O  (SGG)--O
     Eigenvalues --    -1.40478  -0.69081  -0.62209  -0.62209  -0.46718
   1 1   N  1S          0.59294   0.62861  -0.00000   0.00000   0.38526
   2        1PX         0.00000  -0.00000  -0.48187   0.51750  -0.00000
   3        1PY        -0.00000   0.00000   0.51750   0.48187  -0.00000
   4        1PZ        -0.38526   0.32380  -0.00000   0.00000   0.59294
   5 2   N  1S          0.59294  -0.62861   0.00000   0.00000   0.38526
   6        1PX         0.00000  -0.00000  -0.48187   0.51750  -0.00000
   7        1PY        -0.00000   0.00000   0.51750   0.48187  -0.00000
   8        1PZ         0.38526   0.32380  -0.00000   0.00000  -0.59294
                           6         7         8
                       (PIG)--V  (PIG)--V  (SGU)--V
     Eigenvalues --     0.00672   0.00672   0.13011
   1 1   N  1S          0.00000   0.00000  -0.32380
   2        1PX         0.70664   0.02580  -0.00000
   3        1PY        -0.02580   0.70664   0.00000
   4        1PZ         0.00000  -0.00000   0.62861
   5 2   N  1S         -0.00000  -0.00000   0.32380
   6        1PX        -0.70664  -0.02580  -0.00000
   7        1PY         0.02580  -0.70664  -0.00000
   8        1PZ        -0.00000  -0.00000   0.62861
     Density Matrix:
                           1         2         3         4         5
   1 1   N  1S          1.79031
   2        1PX        -0.00000   1.00000
   3        1PY        -0.00000  -0.00000   1.00000
   4        1PZ         0.40708   0.00000   0.00000   1.20969
   5 2   N  1S          0.20969   0.00000   0.00000  -0.40708   1.79031
   6        1PX        -0.00000   1.00000  -0.00000   0.00000   0.00000
   7        1PY        -0.00000  -0.00000   1.00000   0.00000  -0.00000
   8        1PZ         0.40708   0.00000   0.00000  -0.79031  -0.40708
                           6         7         8
   6        1PX         1.00000
   7        1PY        -0.00000   1.00000
   8        1PZ        -0.00000   0.00000   1.20969
    Full Mulliken population analysis:
                           1         2         3         4         5
   1 1   N  1S          1.79031
   2        1PX         0.00000   1.00000
   3        1PY         0.00000   0.00000   1.00000
   4        1PZ         0.00000   0.00000   0.00000   1.20969
   5 2   N  1S          0.00000   0.00000   0.00000   0.00000   1.79031
   6        1PX         0.00000   0.00000   0.00000   0.00000   0.00000
   7        1PY         0.00000   0.00000   0.00000   0.00000   0.00000
   8        1PZ         0.00000   0.00000   0.00000   0.00000   0.00000
                           6         7         8
   6        1PX         1.00000
   7        1PY         0.00000   1.00000
   8        1PZ         0.00000   0.00000   1.20969
     Gross orbital populations:
                           1
   1 1   N  1S          1.79031
   2        1PX         1.00000
   3        1PY         1.00000
   4        1PZ         1.20969
   5 2   N  1S          1.79031
   6        1PX         1.00000
   7        1PY         1.00000
   8        1PZ         1.20969
          Condensed to atoms (all electrons):
               1          2
     1  N    5.000000   0.000000
     2  N    0.000000   5.000000
 Mulliken charges:
               1
     1  N   -0.000000
     2  N    0.000000
 Sum of Mulliken charges =   0.00000
 Mulliken charges with hydrogens summed into heavy atoms:
               1
     1  N   -0.000000
     2  N    0.000000
 Charge=              0.0000 electrons
 Dipole moment (field-independent basis, Debye):
    X=             -0.0000    Y=              0.0000    Z=             -0.0000  Tot=              0.0000
 N-N= 2.217386989962D+01 E-N=-1.584010511536D+01  KE=-2.076082000713D+01
 Symmetry AG   KE=-8.689819199724D+00
 Symmetry B1G  KE= 0.000000000000D+00
 Symmetry B2G  KE= 0.000000000000D+00
 Symmetry B3G  KE= 1.870772312148D-16
 Symmetry AU   KE= 0.000000000000D+00
 Symmetry B1U  KE=-4.142885709215D+00
 Symmetry B2U  KE=-3.964057549098D+00
 Symmetry B3U  KE=-3.964057549098D+00
 StAtR1:  DoIntr=F IAtCor=3 NETot=      10 Failed=F Sum=  4.00D+00 SumC=  0.00D+00
 There are a total of       42604 grid points.
 ElSum from          density=       12.9471144770
 ElSum from atomic densities=       13.9999999047
 Hirshfeld populations at iteration   1 (CA, CB, DipXYZ):
               1          2          3          4          5
     1  N    3.236779   3.236779  -0.000000  -0.000000   0.464050
     2  N    3.236779   3.236779  -0.000000  -0.000000  -0.464050
       Tot   6.473557   6.473557  -0.000000  -0.000000  -0.000000

 Dip from Atomic Chgs             -0.000000   0.000000  -0.000000
         Total Dipole             -0.000000  -0.000000  -0.000000

 Hirshfeld charges, spin densities, dipoles, and CM5 charges using IRadAn=      5:
              Q-H        S-H        Dx         Dy         Dz        Q-CM5   
     1  N   -1.473557   0.000000  -0.000000  -0.000000   0.464050  -1.473557
     2  N   -1.473557   0.000000  -0.000000  -0.000000  -0.464050  -1.473557
       Tot  -2.947114   0.000000  -0.000000  -0.000000  -0.000000  -2.947114
 Hirshfeld charges with hydrogens summed into heavy atoms:
              Q-H       Q-CM5   
     1  N   -1.473557  -1.473557
     2  N   -1.473557  -1.473557
 
 EQQ= 0.000000000000E+00 EQD= 0.000000000000E+00 EDD=-0.245056226317E-01
 EQQ+QD+DD=-0.245056226317E-01
 
 Orbital energies and kinetic energies (alpha):
                                 1                 2
   1         (SGG)--O         -1.404783         -2.473422
   2         (SGU)--O         -0.690807         -2.071443
   3         (PIU)--O         -0.622088         -1.982029
   4         (PIU)--O         -0.622088         -1.982029
   5         (SGG)--O         -0.467179         -1.871487
   6         (PIG)--V          0.006720         -1.685042
   7         (PIG)--V          0.006720         -1.685042
   8         (SGU)--V          0.130110         -1.497825
 Total kinetic energy from orbitals=-2.076082000713D+01
 Leave Link  601 at Fri Sep  6 09:46:15 2024, MaxMem=   104857600 cpu:               0.0 elap:               0.0
 (Enter /Users/asuyarger/Applications/G16/g16/l701.exe)
 ... and contract with generalized density number  0.
 Compute integral first derivatives.
 Leave Link  701 at Fri Sep  6 09:46:15 2024, MaxMem=   104857600 cpu:               0.0 elap:               0.0
 (Enter /Users/asuyarger/Applications/G16/g16/l702.exe)
 L702 exits ... SP integral derivatives will be done elsewhere.
 Leave Link  702 at Fri Sep  6 09:46:15 2024, MaxMem=   104857600 cpu:               0.0 elap:               0.0
 (Enter /Users/asuyarger/Applications/G16/g16/l703.exe)
 Integral derivatives from FoFJK, PRISM(SPDF).
 Compute integral first derivatives, UseDBF=F ICtDFT=           0.
 Calling FoFJK, ICntrl=      2127 FMM=F ISym2X=1 I1Cent= 0 IOpClX= 0 NMat=1 NMatS=1 NMatT=0.
 FoFJK:  IHMeth=40 ICntrl=    2127 DoSepK=F KAlg= 0 I1Cent=           0 FoldK=F
 IRaf=         0 NMat=       1 IRICut=       1 DoRegI=T DoRafI=F ISym2E= 1 IDoP0=3 IntGTp=3.
 FoFCou: FMM=F IPFlag=           0 FMFlag=      100000 FMFlg1=         800
         NFxFlg=           0 DoJE=F BraDBF=F KetDBF=F FulRan=T
         wScrn=  0.000000 ICntrl=      2127 IOpCl=  0 I1Cent=           0 NGrid=           0
         NMat0=    1 NMatS0=      1 NMatT0=    0 NMatD0=    1 NMtDS0=    0 NMtDT0=    0
 Petite list used in FoFCou.
 Leave Link  703 at Fri Sep  6 09:46:15 2024, MaxMem=   104857600 cpu:               0.0 elap:               0.0
 (Enter /Users/asuyarger/Applications/G16/g16/l716.exe)
 Dipole        =-5.80588184D-16 4.94175171D-16-8.88178420D-15
 ***** Axes restored to original set *****
 -------------------------------------------------------------------
 Center     Atomic                   Forces (Hartrees/Bohr)
 Number     Number              X              Y              Z
 -------------------------------------------------------------------
      1        7           0.078135319   -0.000000000   -0.000000000
      2        7          -0.078135319    0.000000000    0.000000000
 -------------------------------------------------------------------
 Cartesian Forces:  Max     0.078135319 RMS     0.045111447
 Leave Link  716 at Fri Sep  6 09:46:15 2024, MaxMem=   104857600 cpu:               0.0 elap:               0.0
 (Enter /Users/asuyarger/Applications/G16/g16/l103.exe)

 GradGradGradGradGradGradGradGradGradGradGradGradGradGradGradGradGradGrad
 Berny optimization.
 FormGI is forming the generalized inverse of G from B-inverse, IUseBI=4.
 Internal  Forces:  Max     0.078135319 RMS     0.078135319
 Search for a local minimum.
 Step number   1 out of a maximum of   20
 All quantities printed in internal units (Hartrees-Bohrs-Radians)
 RMS Force = .78135D-01 SwitMx=.10000D-02 MixMth= 1
 Mixed Optimization -- RFO/linear search
 Second derivative matrix not updated -- first step.
 The second derivative matrix:
                          R1
           R1           1.85037
 ITU=  0
     Eigenvalues ---    1.85037
 RFO step:  Lambda=-3.29354496D-03 EMin= 1.85037116D+00
 Linear search not attempted -- first point.
 Iteration  1 RMS(Cart)=  0.02980583 RMS(Int)=  0.00000000
 Iteration  2 RMS(Cart)=  0.00000000 RMS(Int)=  0.00000000
 ITry= 1 IFail=0 DXMaxC= 2.11D-02 DCOld= 1.00D+10 DXMaxT= 3.00D-01 DXLimC= 3.00D+00 Rises=F
 ClnCor:  largest displacement from symmetrization is 1.29D-18 for atom     2.
 Variable       Old X    -DE/DX   Delta X   Delta X   Delta X     New X
                                 (Linear)    (Quad)   (Total)
    R1        2.06358   0.07814   0.00000   0.04215   0.04215   2.10573
         Item               Value     Threshold  Converged?
 Maximum Force            0.078135     0.000450     NO 
 RMS     Force            0.078135     0.000300     NO 
 Maximum Displacement     0.021076     0.001800     NO 
 RMS     Displacement     0.029806     0.001200     NO 
 Predicted change in Energy=-1.649698D-03
 Lowest energy point so far.  Saving SCF results.
 GradGradGradGradGradGradGradGradGradGradGradGradGradGradGradGradGradGrad

 Leave Link  103 at Fri Sep  6 09:46:15 2024, MaxMem=   104857600 cpu:               0.0 elap:               0.0
 (Enter /Users/asuyarger/Applications/G16/g16/l202.exe)
                          Input orientation:                          
 ---------------------------------------------------------------------
 Center     Atomic      Atomic             Coordinates (Angstroms)
 Number     Number       Type             X           Y           Z
 ---------------------------------------------------------------------
      1          7           0        0.644377    0.526316    0.000000
      2          7           0       -0.469929    0.526316   -0.000000
 ---------------------------------------------------------------------
 Stoichiometry    N2
 Framework group  D*H[C*(N.N)]
 Deg. of freedom     1
 Full point group                 D*H     NOp   8
 RotChk:  IX=0 Diff= 8.66D-17
 Largest Abelian subgroup         D2H     NOp   8
 Largest concise Abelian subgroup C2      NOp   2
                         Standard orientation:                         
 ---------------------------------------------------------------------
 Center     Atomic      Atomic             Coordinates (Angstroms)
 Number     Number       Type             X           Y           Z
 ---------------------------------------------------------------------
      1          7           0        0.000000    0.000000    0.557153
      2          7           0        0.000000    0.000000   -0.557153
 ---------------------------------------------------------------------
 Rotational constants (GHZ):           0.0000000          58.1319709          58.1319709
 Leave Link  202 at Fri Sep  6 09:46:15 2024, MaxMem=   104857600 cpu:               0.0 elap:               0.0
 (Enter /Users/asuyarger/Applications/G16/g16/l301.exe)
 Standard basis: VSTO-6G (5D, 7F)
 Ernie: Thresh=  0.10000D-02 Tol=  0.10000D-05 Strict=F.
  NNHCO=     0 NNPyr=     0 NCTC=     0               EPep=         0.000000000
    EC=         8.205172536  ECS=         0.628180286   EG=        -0.001992355
   EHC=         0.000985396  EAt=       -12.858694572  AtH=         0.360153925
 EPDDG=         0.000000000  ECC=         8.832345863 EAtT=        13.218848496
 There are     2 symmetry adapted cartesian basis functions of AG  symmetry.
 There are     0 symmetry adapted cartesian basis functions of B1G symmetry.
 There are     1 symmetry adapted cartesian basis functions of B2G symmetry.
 There are     1 symmetry adapted cartesian basis functions of B3G symmetry.
 There are     0 symmetry adapted cartesian basis functions of AU  symmetry.
 There are     2 symmetry adapted cartesian basis functions of B1U symmetry.
 There are     1 symmetry adapted cartesian basis functions of B2U symmetry.
 There are     1 symmetry adapted cartesian basis functions of B3U symmetry.
 There are     2 symmetry adapted basis functions of AG  symmetry.
 There are     0 symmetry adapted basis functions of B1G symmetry.
 There are     1 symmetry adapted basis functions of B2G symmetry.
 There are     1 symmetry adapted basis functions of B3G symmetry.
 There are     0 symmetry adapted basis functions of AU  symmetry.
 There are     2 symmetry adapted basis functions of B1U symmetry.
 There are     1 symmetry adapted basis functions of B2U symmetry.
 There are     1 symmetry adapted basis functions of B3U symmetry.
     8 basis functions,    48 primitive gaussians,     8 cartesian basis functions
     5 alpha electrons        5 beta electrons
       nuclear repulsion energy        22.0511943592 Hartrees.
 IExCor=    0 DFT=F Ex=HF Corr=None ExCW=0 ScaHFX=  1.000000
 ScaDFX=  1.000000  1.000000  1.000000  1.000000 ScalE2=  1.000000  1.000000
 IRadAn=      5 IRanWt=     -1 IRanGd=            0 ICorTp=0 IEmpDi=  4
 Integral buffers will be    131072 words long.
 Regular integral format.
 Two-electron integral symmetry is turned off.
 Leave Link  301 at Fri Sep  6 09:46:15 2024, MaxMem=   104857600 cpu:               0.0 elap:               0.0
 (Enter /Users/asuyarger/Applications/G16/g16/l302.exe)
 Do NDO integrals.
 NPDir=0 NMtPBC=     1 NCelOv=     1 NCel=       1 NClECP=     1 NCelD=      1
         NCelK=      1 NCelE2=     1 NClLst=     1 CellRange=     0.0.
 One-electron integrals computed using PRISM.
 NBasis=     8 RedAO= T EigKep=  1.00D+00  NBF=     2     0     1     1     0     2     1     1
 NBsUse=     8 1.00D-06 EigRej= -1.00D+00 NBFU=     2     0     1     1     0     2     1     1
 Leave Link  302 at Fri Sep  6 09:46:15 2024, MaxMem=   104857600 cpu:               0.0 elap:               0.0
 (Enter /Users/asuyarger/Applications/G16/g16/l303.exe)
 DipDrv:  MaxL=1.
 Leave Link  303 at Fri Sep  6 09:46:15 2024, MaxMem=   104857600 cpu:               0.0 elap:               0.0
 (Enter /Users/asuyarger/Applications/G16/g16/l401.exe)
 Initial guess from the checkpoint file:  "N2_PM6_Opt_Freq_Full.chk"
 B after Tr=     0.000000    0.000000    0.000000
         Rot=    1.000000    0.000000    0.000000    0.000000 Ang=   0.00 deg.
 Guess basis will be translated and rotated to current coordinates.
 JPrj=0 DoOrth=T DoCkMO=T.
 Initial guess orbital symmetries:
       Occupied  (SGG) (SGU) (PIU) (PIU) (SGG)
       Virtual   (PIG) (PIG) (SGU)
 The electronic state of the initial guess is 1-SGG.
 Leave Link  401 at Fri Sep  6 09:46:15 2024, MaxMem=   104857600 cpu:               0.0 elap:               0.0
 (Enter /Users/asuyarger/Applications/G16/g16/l502.exe)
 Keep J ints in memory in canonical form, NReq=859239.
 FoFCou: FMM=F IPFlag=           0 FMFlag=           0 FMFlg1=           0
         NFxFlg=           0 DoJE=F BraDBF=F KetDBF=F FulRan=T
         wScrn=  0.000000 ICntrl=       600 IOpCl=  2 I1Cent=           0 NGrid=           0
         NMat0=    1 NMatS0=     20 NMatT0=    0 NMatD0=    1 NMtDS0=    0 NMtDT0=    0
 Symmetry not used in FoFCou.
 Two-electron integral symmetry not used.
 Closed shell SCF:
 Using DIIS extrapolation, IDIIS=  1040.
 Overlap will be assumed to be unity.
 NGot=   104857600 LenX=   104797164 LenY=   104796282
 Requested convergence on RMS density matrix=1.00D-08 within 128 cycles.
 Requested convergence on MAX density matrix=1.00D-06.
 Requested convergence on             energy=1.00D-06.
 No special actions if energy rises.
 An orbital has undefined symmetry, so N**3 symmetry is turned off.

 Cycle   1  Pass 1  IDiag  1:
 E= 0.649036302894856E-01
 DIIS: error= 2.12D-03 at cycle   1 NSaved=   1.
 NSaved= 1 IEnMin= 1 EnMin= 0.649036302894856E-01 IErMin= 1 ErrMin= 2.12D-03
 ErrMax= 2.12D-03  0.00D+00 EMaxC= 1.00D-01 BMatC= 7.22D-05 BMatP= 7.22D-05
 IDIUse=3 WtCom= 9.79D-01 WtEn= 2.12D-02
 Coeff-Com:  0.100D+01
 Coeff-En:   0.100D+01
 Coeff:      0.100D+01
 GapD=    2.000 DampG=2.000 DampE=1.000 DampFc=2.0000 IDamp=-1.
 RMSDP=1.83D-03 MaxDP=4.19D-03              OVMax= 0.00D+00

 Cycle   2  Pass 1  IDiag  3:
 E= 0.646838063614297E-01 Delta-E=       -0.000219823928 Rises=F Damp=F
 DIIS: error= 5.27D-04 at cycle   2 NSaved=   2.
 NSaved= 2 IEnMin= 2 EnMin= 0.646838063614297E-01 IErMin= 2 ErrMin= 5.27D-04
 ErrMax= 5.27D-04  0.00D+00 EMaxC= 1.00D-01 BMatC= 4.44D-06 BMatP= 7.22D-05
 IDIUse=3 WtCom= 9.95D-01 WtEn= 5.27D-03
 Coeff-Com: -0.330D+00 0.133D+01
 Coeff-En:   0.000D+00 0.100D+01
 Coeff:     -0.328D+00 0.133D+01
 Gap=     0.472 Goal=   None    Shift=    0.000
 RMSDP=6.02D-04 MaxDP=1.36D-03 DE=-2.20D-04 OVMax= 3.40D-03

 Cycle   3  Pass 1  IDiag  3:
 E= 0.646694617773562E-01 Delta-E=       -0.000014344584 Rises=F Damp=F
 DIIS: error= 5.06D-08 at cycle   3 NSaved=   3.
 NSaved= 3 IEnMin= 3 EnMin= 0.646694617773562E-01 IErMin= 3 ErrMin= 5.06D-08
 ErrMax= 5.06D-08  0.00D+00 EMaxC= 1.00D-01 BMatC= 4.09D-14 BMatP= 4.44D-06
 IDIUse=1 WtCom= 1.00D+00 WtEn= 0.00D+00
 Large coefficients: NSaved=  3 BigCof=    0.00 CofMax=   10.00 Det=-8.47D-22
 Inversion failed.  Reducing to  2 matrices.
 Coeff-Com:  0.960D-04 0.100D+01
 Coeff:      0.960D-04 0.100D+01
 Gap=     0.472 Goal=   None    Shift=    0.000
 RMSDP=5.77D-08 MaxDP=1.30D-07 DE=-1.43D-05 OVMax= 3.27D-07

 Cycle   4  Pass 1  IDiag  3:
 E= 0.646694617772212E-01 Delta-E=       -0.000000000000 Rises=F Damp=F
 DIIS: error= 1.73D-11 at cycle   4 NSaved=   3.
 NSaved= 3 IEnMin= 3 EnMin= 0.646694617772212E-01 IErMin= 3 ErrMin= 1.73D-11
 ErrMax= 1.73D-11  0.00D+00 EMaxC= 1.00D-01 BMatC= 4.80D-21 BMatP= 4.09D-14
 IDIUse=1 WtCom= 1.00D+00 WtEn= 0.00D+00
 Large coefficients: NSaved=  3 BigCof=    0.00 CofMax=   10.00 Det= 1.26D-29
 Inversion failed.  Reducing to  2 matrices.
 Coeff-Com:  0.342D-03 0.100D+01
 Coeff:      0.342D-03 0.100D+01
 Gap=     0.472 Goal=   None    Shift=    0.000
 RMSDP=1.98D-11 MaxDP=4.46D-11 DE=-1.35D-13 OVMax= 1.12D-10

 Cycle   5  Pass 2  IDiag  1:
 SCF Done:  E(RPM6) =  0.646694617772E-01 A.U. after    5 cycles
            NFock=  4  Conv=0.20D-10     -V/T= 1.0031
 KE=-2.071988796932D+01 PE=-1.571338982223D+01 EE= 1.444675289415D+01
 Leave Link  502 at Fri Sep  6 09:46:15 2024, MaxMem=   104857600 cpu:               0.0 elap:               0.0
 (Enter /Users/asuyarger/Applications/G16/g16/l701.exe)
 ... and contract with generalized density number  0.
 Compute integral first derivatives.
 Leave Link  701 at Fri Sep  6 09:46:15 2024, MaxMem=   104857600 cpu:               0.0 elap:               0.0
 (Enter /Users/asuyarger/Applications/G16/g16/l702.exe)
 L702 exits ... SP integral derivatives will be done elsewhere.
 Leave Link  702 at Fri Sep  6 09:46:15 2024, MaxMem=   104857600 cpu:               0.0 elap:               0.0
 (Enter /Users/asuyarger/Applications/G16/g16/l703.exe)
 Integral derivatives from FoFJK, PRISM(SPDF).
 Compute integral first derivatives, UseDBF=F ICtDFT=           0.
 Calling FoFJK, ICntrl=      2127 FMM=F ISym2X=1 I1Cent= 0 IOpClX= 0 NMat=1 NMatS=1 NMatT=0.
 FoFJK:  IHMeth=40 ICntrl=    2127 DoSepK=F KAlg= 0 I1Cent=           0 FoldK=F
 IRaf=         0 NMat=       1 IRICut=       1 DoRegI=T DoRafI=F ISym2E= 1 IDoP0=3 IntGTp=3.
 FoFCou: FMM=F IPFlag=           0 FMFlag=      100000 FMFlg1=         800
         NFxFlg=           0 DoJE=F BraDBF=F KetDBF=F FulRan=T
         wScrn=  0.000000 ICntrl=      2127 IOpCl=  0 I1Cent=           0 NGrid=           0
         NMat0=    1 NMatS0=      1 NMatT0=    0 NMatD0=    1 NMtDS0=    0 NMtDT0=    0
 Petite list used in FoFCou.
 Leave Link  703 at Fri Sep  6 09:46:15 2024, MaxMem=   104857600 cpu:               0.0 elap:               0.0
 (Enter /Users/asuyarger/Applications/G16/g16/l716.exe)
 Dipole        = 2.68536168D-16-4.42546452D-16-4.44089210D-15
 ***** Axes restored to original set *****
 -------------------------------------------------------------------
 Center     Atomic                   Forces (Hartrees/Bohr)
 Number     Number              X              Y              Z
 -------------------------------------------------------------------
      1        7           0.008181767    0.000000000   -0.000000000
      2        7          -0.008181767   -0.000000000    0.000000000
 -------------------------------------------------------------------
 Cartesian Forces:  Max     0.008181767 RMS     0.004723745
 Leave Link  716 at Fri Sep  6 09:46:15 2024, MaxMem=   104857600 cpu:               0.0 elap:               0.0
 (Enter /Users/asuyarger/Applications/G16/g16/l103.exe)

 GradGradGradGradGradGradGradGradGradGradGradGradGradGradGradGradGradGrad
 Berny optimization.
 Using GEDIIS/GDIIS optimizer.
 Red2BG is reusing G-inverse.
 Internal  Forces:  Max     0.008181767 RMS     0.008181767
 Search for a local minimum.
 Step number   2 out of a maximum of   20
 All quantities printed in internal units (Hartrees-Bohrs-Radians)
 RMS Force = .81818D-02 SwitMx=.10000D-02 MixMth= 1
 Mixed Optimization -- RFO/linear search
 Update second derivatives using D2CorX and points    1    2
 DE= -1.79D-03 DEPred=-1.65D-03 R= 1.09D+00
 TightC=F SS=  1.41D+00  RLast= 4.22D-02 DXNew= 5.0454D-01 1.2646D-01
 Trust test= 1.09D+00 RLast= 4.22D-02 DXMaxT set to 3.00D-01
 The second derivative matrix:
                          R1
           R1           1.65956
 ITU=  1  0
 Use linear search instead of GDIIS.
     Eigenvalues ---    1.65956
 RFO step:  Lambda= 0.00000000D+00 EMin= 1.65956232D+00
 Quartic linear search produced a step of  0.12443.
 Iteration  1 RMS(Cart)=  0.00370875 RMS(Int)=  0.00000000
 Iteration  2 RMS(Cart)=  0.00000000 RMS(Int)=  0.00000000
 ITry= 1 IFail=0 DXMaxC= 2.62D-03 DCOld= 1.00D+10 DXMaxT= 3.00D-01 DXLimC= 3.00D+00 Rises=F
 ClnCor:  largest displacement from symmetrization is 1.61D-19 for atom     1.
 Variable       Old X    -DE/DX   Delta X   Delta X   Delta X     New X
                                 (Linear)    (Quad)   (Total)
    R1        2.10573   0.00818   0.00524   0.00000   0.00524   2.11098
         Item               Value     Threshold  Converged?
 Maximum Force            0.008182     0.000450     NO 
 RMS     Force            0.008182     0.000300     NO 
 Maximum Displacement     0.002622     0.001800     NO 
 RMS     Displacement     0.003709     0.001200     NO 
 Predicted change in Energy=-2.008608D-05
 Lowest energy point so far.  Saving SCF results.
 GradGradGradGradGradGradGradGradGradGradGradGradGradGradGradGradGradGrad

 Leave Link  103 at Fri Sep  6 09:46:15 2024, MaxMem=   104857600 cpu:               0.0 elap:               0.0
 (Enter /Users/asuyarger/Applications/G16/g16/l202.exe)
                          Input orientation:                          
 ---------------------------------------------------------------------
 Center     Atomic      Atomic             Coordinates (Angstroms)
 Number     Number       Type             X           Y           Z
 ---------------------------------------------------------------------
      1          7           0        0.645764    0.526316    0.000000
      2          7           0       -0.471317    0.526316   -0.000000
 ---------------------------------------------------------------------
 Stoichiometry    N2
 Framework group  D*H[C*(N.N)]
 Deg. of freedom     1
 Full point group                 D*H     NOp   8
 RotChk:  IX=0 Diff= 8.66D-17
 Largest Abelian subgroup         D2H     NOp   8
 Largest concise Abelian subgroup C2      NOp   2
                         Standard orientation:                         
 ---------------------------------------------------------------------
 Center     Atomic      Atomic             Coordinates (Angstroms)
 Number     Number       Type             X           Y           Z
 ---------------------------------------------------------------------
      1          7           0        0.000000    0.000000    0.558541
      2          7           0        0.000000    0.000000   -0.558541
 ---------------------------------------------------------------------
 Rotational constants (GHZ):           0.0000000          57.8434586          57.8434586
 Leave Link  202 at Fri Sep  6 09:46:15 2024, MaxMem=   104857600 cpu:               0.0 elap:               0.0
 (Enter /Users/asuyarger/Applications/G16/g16/l301.exe)
 Standard basis: VSTO-6G (5D, 7F)
 Ernie: Thresh=  0.10000D-02 Tol=  0.10000D-05 Strict=F.
  NNHCO=     0 NNPyr=     0 NCTC=     0               EPep=         0.000000000
    EC=         8.195416024  ECS=         0.622952093   EG=        -0.001990626
   EHC=         0.000956414  EAt=       -12.858694572  AtH=         0.360153925
 EPDDG=         0.000000000  ECC=         8.817333906 EAtT=        13.218848496
 There are     2 symmetry adapted cartesian basis functions of AG  symmetry.
 There are     0 symmetry adapted cartesian basis functions of B1G symmetry.
 There are     1 symmetry adapted cartesian basis functions of B2G symmetry.
 There are     1 symmetry adapted cartesian basis functions of B3G symmetry.
 There are     0 symmetry adapted cartesian basis functions of AU  symmetry.
 There are     2 symmetry adapted cartesian basis functions of B1U symmetry.
 There are     1 symmetry adapted cartesian basis functions of B2U symmetry.
 There are     1 symmetry adapted cartesian basis functions of B3U symmetry.
 There are     2 symmetry adapted basis functions of AG  symmetry.
 There are     0 symmetry adapted basis functions of B1G symmetry.
 There are     1 symmetry adapted basis functions of B2G symmetry.
 There are     1 symmetry adapted basis functions of B3G symmetry.
 There are     0 symmetry adapted basis functions of AU  symmetry.
 There are     2 symmetry adapted basis functions of B1U symmetry.
 There are     1 symmetry adapted basis functions of B2U symmetry.
 There are     1 symmetry adapted basis functions of B3U symmetry.
     8 basis functions,    48 primitive gaussians,     8 cartesian basis functions
     5 alpha electrons        5 beta electrons
       nuclear repulsion energy        22.0361824020 Hartrees.
 IExCor=    0 DFT=F Ex=HF Corr=None ExCW=0 ScaHFX=  1.000000
 ScaDFX=  1.000000  1.000000  1.000000  1.000000 ScalE2=  1.000000  1.000000
 IRadAn=      5 IRanWt=     -1 IRanGd=            0 ICorTp=0 IEmpDi=  4
 Integral buffers will be    131072 words long.
 Regular integral format.
 Two-electron integral symmetry is turned off.
 Leave Link  301 at Fri Sep  6 09:46:15 2024, MaxMem=   104857600 cpu:               0.0 elap:               0.0
 (Enter /Users/asuyarger/Applications/G16/g16/l302.exe)
 Do NDO integrals.
 NPDir=0 NMtPBC=     1 NCelOv=     1 NCel=       1 NClECP=     1 NCelD=      1
         NCelK=      1 NCelE2=     1 NClLst=     1 CellRange=     0.0.
 One-electron integrals computed using PRISM.
 NBasis=     8 RedAO= T EigKep=  1.00D+00  NBF=     2     0     1     1     0     2     1     1
 NBsUse=     8 1.00D-06 EigRej= -1.00D+00 NBFU=     2     0     1     1     0     2     1     1
 Leave Link  302 at Fri Sep  6 09:46:15 2024, MaxMem=   104857600 cpu:               0.0 elap:               0.0
 (Enter /Users/asuyarger/Applications/G16/g16/l303.exe)
 DipDrv:  MaxL=1.
 Leave Link  303 at Fri Sep  6 09:46:15 2024, MaxMem=   104857600 cpu:               0.0 elap:               0.0
 (Enter /Users/asuyarger/Applications/G16/g16/l401.exe)
 Initial guess from the checkpoint file:  "N2_PM6_Opt_Freq_Full.chk"
 B after Tr=     0.000000    0.000000    0.000000
         Rot=    1.000000    0.000000    0.000000    0.000000 Ang=   0.00 deg.
 Guess basis will be translated and rotated to current coordinates.
 JPrj=0 DoOrth=T DoCkMO=T.
 Initial guess orbital symmetries:
       Occupied  (SGG) (SGU) (PIU) (PIU) (SGG)
       Virtual   (PIG) (PIG) (SGU)
 The electronic state of the initial guess is 1-SGG.
 Leave Link  401 at Fri Sep  6 09:46:16 2024, MaxMem=   104857600 cpu:               0.0 elap:               0.0
 (Enter /Users/asuyarger/Applications/G16/g16/l502.exe)
 Keep J ints in memory in canonical form, NReq=859239.
 FoFCou: FMM=F IPFlag=           0 FMFlag=           0 FMFlg1=           0
         NFxFlg=           0 DoJE=F BraDBF=F KetDBF=F FulRan=T
         wScrn=  0.000000 ICntrl=       600 IOpCl=  2 I1Cent=           0 NGrid=           0
         NMat0=    1 NMatS0=     20 NMatT0=    0 NMatD0=    1 NMtDS0=    0 NMtDT0=    0
 Symmetry not used in FoFCou.
 Two-electron integral symmetry not used.
 Closed shell SCF:
 Using DIIS extrapolation, IDIIS=  1040.
 Overlap will be assumed to be unity.
 NGot=   104857600 LenX=   104797164 LenY=   104796282
 Requested convergence on RMS density matrix=1.00D-08 within 128 cycles.
 Requested convergence on MAX density matrix=1.00D-06.
 Requested convergence on             energy=1.00D-06.
 No special actions if energy rises.
 An orbital has undefined symmetry, so N**3 symmetry is turned off.

 Cycle   1  Pass 1  IDiag  1:
 E= 0.646515815542550E-01
 DIIS: error= 2.61D-04 at cycle   1 NSaved=   1.
 NSaved= 1 IEnMin= 1 EnMin= 0.646515815542550E-01 IErMin= 1 ErrMin= 2.61D-04
 ErrMax= 2.61D-04  0.00D+00 EMaxC= 1.00D-01 BMatC= 1.09D-06 BMatP= 1.09D-06
 IDIUse=3 WtCom= 9.97D-01 WtEn= 2.61D-03
 Coeff-Com:  0.100D+01
 Coeff-En:   0.100D+01
 Coeff:      0.100D+01
 RMSDP=2.25D-04 MaxDP=5.07D-04              OVMax= 0.00D+00

 Cycle   2  Pass 1  IDiag  3:
 E= 0.646482730244315E-01 Delta-E=       -0.000003308530 Rises=F Damp=F
 DIIS: error= 6.42D-05 at cycle   2 NSaved=   2.
 NSaved= 2 IEnMin= 2 EnMin= 0.646482730244315E-01 IErMin= 2 ErrMin= 6.42D-05
 ErrMax= 6.42D-05  0.00D+00 EMaxC= 1.00D-01 BMatC= 6.60D-08 BMatP= 1.09D-06
 IDIUse=1 WtCom= 1.00D+00 WtEn= 0.00D+00
 Coeff-Com: -0.326D+00 0.133D+01
 Coeff:     -0.326D+00 0.133D+01
 Gap=     0.472 Goal=   None    Shift=    0.000
 RMSDP=7.33D-05 MaxDP=1.65D-04 DE=-3.31D-06 OVMax= 4.15D-04

 Cycle   3  Pass 1  IDiag  3:
 E= 0.646480600448243E-01 Delta-E=       -0.000000212980 Rises=F Damp=F
 DIIS: error= 1.09D-08 at cycle   3 NSaved=   3.
 NSaved= 3 IEnMin= 3 EnMin= 0.646480600448243E-01 IErMin= 3 ErrMin= 1.09D-08
 ErrMax= 1.09D-08  0.00D+00 EMaxC= 1.00D-01 BMatC= 1.90D-15 BMatP= 6.60D-08
 IDIUse=1 WtCom= 1.00D+00 WtEn= 0.00D+00
 Large coefficients: NSaved=  3 BigCof=    0.00 CofMax=   10.00 Det= 1.32D-23
 Inversion failed.  Reducing to  2 matrices.
 Coeff-Com:  0.170D-03 0.100D+01
 Coeff:      0.170D-03 0.100D+01
 Gap=     0.472 Goal=   None    Shift=    0.000
 RMSDP=1.24D-08 MaxDP=2.80D-08 DE=-2.13D-07 OVMax= 7.04D-08

 Cycle   4  Pass 1  IDiag  3:
 E= 0.646480600448029E-01 Delta-E=       -0.000000000000 Rises=F Damp=F
 DIIS: error= 4.55D-13 at cycle   4 NSaved=   3.
 NSaved= 3 IEnMin= 3 EnMin= 0.646480600448029E-01 IErMin= 3 ErrMin= 4.55D-13
 ErrMax= 4.55D-13  0.00D+00 EMaxC= 1.00D-01 BMatC= 3.30D-24 BMatP= 1.90D-15
 IDIUse=1 WtCom= 1.00D+00 WtEn= 0.00D+00
 Coeff-Com:  0.000D+00 0.000D+00 0.100D+01
 Coeff:      0.000D+00 0.000D+00 0.100D+01
 Gap=     0.472 Goal=   None    Shift=    0.000
 RMSDP=3.91D-13 MaxDP=8.80D-13 DE=-2.13D-14 OVMax= 2.21D-12

 Cycle   5  Pass 2  IDiag  1:
 SCF Done:  E(RPM6) =  0.646480600448E-01 A.U. after    5 cycles
            NFock=  4  Conv=0.39D-12     -V/T= 1.0031
 KE=-2.071483829268D+01 PE=-1.569764206040D+01 EE= 1.444094601113D+01
 Leave Link  502 at Fri Sep  6 09:46:16 2024, MaxMem=   104857600 cpu:               0.0 elap:               0.0
 (Enter /Users/asuyarger/Applications/G16/g16/l701.exe)
 ... and contract with generalized density number  0.
 Compute integral first derivatives.
 Leave Link  701 at Fri Sep  6 09:46:16 2024, MaxMem=   104857600 cpu:               0.0 elap:               0.0
 (Enter /Users/asuyarger/Applications/G16/g16/l702.exe)
 L702 exits ... SP integral derivatives will be done elsewhere.
 Leave Link  702 at Fri Sep  6 09:46:16 2024, MaxMem=   104857600 cpu:               0.0 elap:               0.0
 (Enter /Users/asuyarger/Applications/G16/g16/l703.exe)
 Integral derivatives from FoFJK, PRISM(SPDF).
 Compute integral first derivatives, UseDBF=F ICtDFT=           0.
 Calling FoFJK, ICntrl=      2127 FMM=F ISym2X=1 I1Cent= 0 IOpClX= 0 NMat=1 NMatS=1 NMatT=0.
 FoFJK:  IHMeth=40 ICntrl=    2127 DoSepK=F KAlg= 0 I1Cent=           0 FoldK=F
 IRaf=         0 NMat=       1 IRICut=       1 DoRegI=T DoRafI=F ISym2E= 1 IDoP0=3 IntGTp=3.
 FoFCou: FMM=F IPFlag=           0 FMFlag=      100000 FMFlg1=         800
         NFxFlg=           0 DoJE=F BraDBF=F KetDBF=F FulRan=T
         wScrn=  0.000000 ICntrl=      2127 IOpCl=  0 I1Cent=           0 NGrid=           0
         NMat0=    1 NMatS0=      1 NMatT0=    0 NMatD0=    1 NMtDS0=    0 NMtDT0=    0
 Petite list used in FoFCou.
 Leave Link  703 at Fri Sep  6 09:46:16 2024, MaxMem=   104857600 cpu:               0.0 elap:               0.0
 (Enter /Users/asuyarger/Applications/G16/g16/l716.exe)
 Dipole        =-4.54703643D-16-4.12831013D-16-4.44089210D-15
 ***** Axes restored to original set *****
 -------------------------------------------------------------------
 Center     Atomic                   Forces (Hartrees/Bohr)
 Number     Number              X              Y              Z
 -------------------------------------------------------------------
      1        7          -0.000002213    0.000000000   -0.000000000
      2        7           0.000002213   -0.000000000    0.000000000
 -------------------------------------------------------------------
 Cartesian Forces:  Max     0.000002213 RMS     0.000001278
 Leave Link  716 at Fri Sep  6 09:46:16 2024, MaxMem=   104857600 cpu:               0.0 elap:               0.0
 (Enter /Users/asuyarger/Applications/G16/g16/l103.exe)

 GradGradGradGradGradGradGradGradGradGradGradGradGradGradGradGradGradGrad
 Berny optimization.
 Using GEDIIS/GDIIS optimizer.
 Red2BG is reusing G-inverse.
 Internal  Forces:  Max     0.000002213 RMS     0.000002213
 Search for a local minimum.
 Step number   3 out of a maximum of   20
 All quantities printed in internal units (Hartrees-Bohrs-Radians)
 RMS Force = .22132D-05 SwitMx=.10000D-02 MixMth= 2
 Mixed Optimization -- En-DIIS/RFO-DIIS
 Update second derivatives using D2CorX and points    2    3
 DE= -2.14D-05 DEPred=-2.01D-05 R= 1.07D+00
 TightC=F SS=  1.41D+00  RLast= 5.24D-03 DXNew= 5.0454D-01 1.5735D-02
 Trust test= 1.07D+00 RLast= 5.24D-03 DXMaxT set to 3.00D-01
 The second derivative matrix:
                          R1
           R1           1.56035
 ITU=  1  1
 Use linear search instead of GDIIS.
     Eigenvalues ---    1.56035
 RFO step:  Lambda= 0.00000000D+00 EMin= 1.56034898D+00
 Quartic linear search produced a step of -0.00027.
 Iteration  1 RMS(Cart)=  0.00000101 RMS(Int)=  0.00000000
 Iteration  2 RMS(Cart)=  0.00000000 RMS(Int)=  0.00000000
 ITry= 1 IFail=0 DXMaxC= 7.14D-07 DCOld= 1.00D+10 DXMaxT= 3.00D-01 DXLimC= 3.00D+00 Rises=F
 ClnCor:  largest displacement from symmetrization is 4.37D-23 for atom     1.
 Variable       Old X    -DE/DX   Delta X   Delta X   Delta X     New X
                                 (Linear)    (Quad)   (Total)
    R1        2.11098  -0.00000  -0.00000   0.00000  -0.00000   2.11098
         Item               Value     Threshold  Converged?
 Maximum Force            0.000002     0.000450     YES
 RMS     Force            0.000002     0.000300     YES
 Maximum Displacement     0.000001     0.001800     YES
 RMS     Displacement     0.000001     0.001200     YES
 Predicted change in Energy=-1.569476D-12
 Optimization completed.
    -- Stationary point found.
                           ----------------------------
                           !   Optimized Parameters   !
                           ! (Angstroms and Degrees)  !
 --------------------------                            --------------------------
 ! Name  Definition              Value          Derivative Info.                !
 --------------------------------------------------------------------------------
 ! R1    R(1,2)                  1.1171         -DE/DX =    0.0                 !
 --------------------------------------------------------------------------------
 Lowest energy point so far.  Saving SCF results.
 Largest change from initial coordinates is atom    1       0.013 Angstoms.
 GradGradGradGradGradGradGradGradGradGradGradGradGradGradGradGradGradGrad

 Leave Link  103 at Fri Sep  6 09:46:16 2024, MaxMem=   104857600 cpu:               0.0 elap:               0.0
 (Enter /Users/asuyarger/Applications/G16/g16/l202.exe)
                          Input orientation:                          
 ---------------------------------------------------------------------
 Center     Atomic      Atomic             Coordinates (Angstroms)
 Number     Number       Type             X           Y           Z
 ---------------------------------------------------------------------
      1          7           0        0.645764    0.526316    0.000000
      2          7           0       -0.471317    0.526316   -0.000000
 ---------------------------------------------------------------------
 Stoichiometry    N2
 Framework group  D*H[C*(N.N)]
 Deg. of freedom     1
 Full point group                 D*H     NOp   8
 RotChk:  IX=0 Diff= 8.66D-17
 Largest Abelian subgroup         D2H     NOp   8
 Largest concise Abelian subgroup C2      NOp   2
                         Standard orientation:                         
 ---------------------------------------------------------------------
 Center     Atomic      Atomic             Coordinates (Angstroms)
 Number     Number       Type             X           Y           Z
 ---------------------------------------------------------------------
      1          7           0        0.000000    0.000000    0.558541
      2          7           0        0.000000    0.000000   -0.558541
 ---------------------------------------------------------------------
 Rotational constants (GHZ):           0.0000000          57.8434586          57.8434586
 Leave Link  202 at Fri Sep  6 09:46:16 2024, MaxMem=   104857600 cpu:               0.0 elap:               0.0
 (Enter /Users/asuyarger/Applications/G16/g16/l601.exe)
 Copying SCF densities to generalized density rwf, IOpCl= 0 IROHF=0.

 **********************************************************************

            Population analysis using the SCF density.

 **********************************************************************

 Orbital symmetries:
       Occupied  (SGG) (SGU) (PIU) (PIU) (SGG)
       Virtual   (PIG) (PIG) (SGU)
 The electronic state is 1-SGG.
 Alpha  occ. eigenvalues --   -1.37836  -0.69265  -0.61076  -0.61076  -0.47276
 Alpha virt. eigenvalues --   -0.00116  -0.00116   0.12921
     Molecular Orbital Coefficients:
                           1         2         3         4         5
                       (SGG)--O  (SGU)--O  (PIU)--O  (PIU)--O  (SGG)--O
     Eigenvalues --    -1.37836  -0.69265  -0.61076  -0.61076  -0.47276
   1 1   N  1S          0.59293   0.63354  -0.00000   0.00000   0.38528
   2        1PX         0.00000   0.00000   0.70685  -0.01896  -0.00000
   3        1PY        -0.00000  -0.00000   0.01896   0.70685  -0.00000
   4        1PZ        -0.38528   0.31405   0.00000   0.00000   0.59293
   5 2   N  1S          0.59293  -0.63354   0.00000  -0.00000   0.38528
   6        1PX         0.00000   0.00000   0.70685  -0.01896  -0.00000
   7        1PY         0.00000  -0.00000   0.01896   0.70685  -0.00000
   8        1PZ         0.38528   0.31405  -0.00000  -0.00000  -0.59293
                           6         7         8
                       (PIG)--V  (PIG)--V  (SGU)--V
     Eigenvalues --    -0.00116  -0.00116   0.12921
   1 1   N  1S          0.00000  -0.00000  -0.31405
   2        1PX         0.66200   0.24852   0.00000
   3        1PY        -0.24852   0.66200  -0.00000
   4        1PZ        -0.00000   0.00000   0.63354
   5 2   N  1S         -0.00000   0.00000   0.31405
   6        1PX        -0.66200  -0.24852  -0.00000
   7        1PY         0.24852  -0.66200   0.00000
   8        1PZ        -0.00000   0.00000   0.63354
     Density Matrix:
                           1         2         3         4         5
   1 1   N  1S          1.80275
   2        1PX        -0.00000   1.00000
   3        1PY         0.00000  -0.00000   1.00000
   4        1PZ         0.39792  -0.00000   0.00000   1.19725
   5 2   N  1S          0.19725   0.00000  -0.00000  -0.39792   1.80275
   6        1PX         0.00000   1.00000  -0.00000   0.00000   0.00000
   7        1PY         0.00000  -0.00000   1.00000  -0.00000   0.00000
   8        1PZ         0.39792   0.00000  -0.00000  -0.80275  -0.39792
                           6         7         8
   6        1PX         1.00000
   7        1PY        -0.00000   1.00000
   8        1PZ        -0.00000   0.00000   1.19725
    Full Mulliken population analysis:
                           1         2         3         4         5
   1 1   N  1S          1.80275
   2        1PX         0.00000   1.00000
   3        1PY         0.00000   0.00000   1.00000
   4        1PZ         0.00000   0.00000   0.00000   1.19725
   5 2   N  1S          0.00000   0.00000   0.00000   0.00000   1.80275
   6        1PX         0.00000   0.00000   0.00000   0.00000   0.00000
   7        1PY         0.00000   0.00000   0.00000   0.00000   0.00000
   8        1PZ         0.00000   0.00000   0.00000   0.00000   0.00000
                           6         7         8
   6        1PX         1.00000
   7        1PY         0.00000   1.00000
   8        1PZ         0.00000   0.00000   1.19725
     Gross orbital populations:
                           1
   1 1   N  1S          1.80275
   2        1PX         1.00000
   3        1PY         1.00000
   4        1PZ         1.19725
   5 2   N  1S          1.80275
   6        1PX         1.00000
   7        1PY         1.00000
   8        1PZ         1.19725
          Condensed to atoms (all electrons):
               1          2
     1  N    5.000000   0.000000
     2  N    0.000000   5.000000
 Mulliken charges:
               1
     1  N   -0.000000
     2  N    0.000000
 Sum of Mulliken charges =   0.00000
 Mulliken charges with hydrogens summed into heavy atoms:
               1
     1  N   -0.000000
     2  N    0.000000
 Charge=              0.0000 electrons
 Dipole moment (field-independent basis, Debye):
    X=             -0.0000    Y=             -0.0000    Z=             -0.0000  Tot=              0.0000
 N-N= 2.203618240200D+01 E-N=-1.569764206040D+01  KE=-2.071483829268D+01
 Symmetry AG   KE=-8.673457665958D+00
 Symmetry B1G  KE= 0.000000000000D+00
 Symmetry B2G  KE= 0.000000000000D+00
 Symmetry B3G  KE=-9.394940134745D-17
 Symmetry AU   KE= 0.000000000000D+00
 Symmetry B1U  KE=-4.142865760625D+00
 Symmetry B2U  KE=-3.949257433051D+00
 Symmetry B3U  KE=-3.949257433051D+00
 StAtR1:  DoIntr=F IAtCor=3 NETot=      10 Failed=F Sum=  4.00D+00 SumC=  0.00D+00
 There are a total of       42604 grid points.
 ElSum from          density=       12.8657744201
 ElSum from atomic densities=       14.0000000107
 Hirshfeld populations at iteration   1 (CA, CB, DipXYZ):
               1          2          3          4          5
     1  N    3.216444   3.216444  -0.000000  -0.000000   0.477089
     2  N    3.216444   3.216444  -0.000000  -0.000000  -0.477089
       Tot   6.432887   6.432887  -0.000000  -0.000000  -0.000000

 Dip from Atomic Chgs             -0.000000   0.000000  -0.000000
         Total Dipole             -0.000000  -0.000000  -0.000000

 Hirshfeld charges, spin densities, dipoles, and CM5 charges using IRadAn=      5:
              Q-H        S-H        Dx         Dy         Dz        Q-CM5   
     1  N   -1.432887   0.000000  -0.000000  -0.000000   0.477089  -1.432887
     2  N   -1.432887   0.000000  -0.000000  -0.000000  -0.477089  -1.432887
       Tot  -2.865774   0.000000  -0.000000  -0.000000  -0.000000  -2.865774
 Hirshfeld charges with hydrogens summed into heavy atoms:
              Q-H       Q-CM5   
     1  N   -1.432887  -1.432887
     2  N   -1.432887  -1.432887
 
 EQQ= 0.000000000000E+00 EQD= 0.000000000000E+00 EDD=-0.241962481903E-01
 EQQ+QD+DD=-0.241962481903E-01
 
 Orbital energies and kinetic energies (alpha):
                                 1                 2
   1         (SGG)--O         -1.378362         -2.459656
   2         (SGU)--O         -0.692649         -2.071433
   3         (PIU)--O         -0.610760         -1.974629
   4         (PIU)--O         -0.610760         -1.974629
   5         (SGG)--O         -0.472764         -1.877073
   6         (PIG)--V         -0.001160         -1.692442
   7         (PIG)--V         -0.001160         -1.692442
   8         (SGU)--V          0.129210         -1.506015
 Total kinetic energy from orbitals=-2.071483829268D+01
 Leave Link  601 at Fri Sep  6 09:46:16 2024, MaxMem=   104857600 cpu:               0.0 elap:               0.0
 (Enter /Users/asuyarger/Applications/G16/g16/l9999.exe)
 1\1\GINC-JEFFSMACSTUDIO\FOpt\RPM6\ZDO\N2\ROOT\06-Sep-2024\0\\#p opt fr
 eq=raman pm6 guess=save pop=(hirshfeld,full) geom=connectivity polar\\
 N2 Opt Freq PM6\\0,1\N,0.6457643067,0.52631578,0.\N,-0.4713169867,0.52
 631578,0.\\Version=EM64M-G16RevA.03\State=1-SGG\HF=0.0646481\RMSD=3.91
 0e-13\RMSF=1.278e-06\Dipole=0.,0.,0.\PG=D*H [C*(N1.N1)]\\@


 THOSE WHO ASPIRE NOT TO GUESS AND DIVINE,
 BUT TO DISCOVER AND KNOW, WHO PROPOSE NOT TO DEVISE 
 MIMIC AND FABULOUS WORLDS OF THEIR OWN, BUT TO 
 EXAMINE AND DISSECT THE NATURE OF THIS VERY WORLD 
 ITSELF, MUST GO TO THE FACTS THEMSELVES FOR EVERYTHING.

                               -- FRANCIS BACON, 1620
 Leave Link 9999 at Fri Sep  6 09:46:16 2024, MaxMem=   104857600 cpu:               0.0 elap:               0.0
 Job cpu time:       0 days  0 hours  0 minutes  1.1 seconds.
 Elapsed time:       0 days  0 hours  0 minutes  0.8 seconds.
 File lengths (MBytes):  RWF=      6 Int=      0 D2E=      0 Chk=      2 Scr=      1
 Normal termination of Gaussian 16 at Fri Sep  6 09:46:16 2024.
 (Enter /Users/asuyarger/Applications/G16/g16/l1.exe)
 Link1:  Proceeding to internal job step number  2.
 -------------------------------------------------------------
 #P Geom=AllCheck Guess=TCheck SCRF=Check GenChk RPM6/ZDO Freq
 -------------------------------------------------------------
 1/10=4,29=7,30=1,38=1,40=1/1,3;
 2/12=2,40=1/2;
 3/5=2,14=-4,25=1,41=3900000,70=2,71=2,116=1,135=40,140=1/1,2,3;
 4/5=101,35=1/1;
 5/5=2,35=1,38=6,98=1/2;
 8/6=4,10=90,11=11/1;
 10/13=10,15=4/2;
 11/6=3,8=1,9=11,15=111,16=1/1,2,10;
 10/6=1/2;
 6/7=3,28=1,79=1/1;
 7/8=1,10=1,25=1/1,2,3,16;
 1/10=4,30=1/3;
 99//99;
 Leave Link    1 at Fri Sep  6 09:46:16 2024, MaxMem=   104857600 cpu:               0.0 elap:               0.0
 (Enter /Users/asuyarger/Applications/G16/g16/l101.exe)
 Structure from the checkpoint file:  "N2_PM6_Opt_Freq_Full.chk"
 ---------------
 N2 Opt Freq PM6
 ---------------
 Charge =  0 Multiplicity = 1
 Redundant internal coordinates found in file.  (old form).
 N,0,0.6457643067,0.52631578,0.
 N,0,-0.4713169867,0.52631578,0.
 Recover connectivity data from disk.
 ITRead=  0  0
 MicOpt= -1 -1
 NAtoms=      2 NQM=        2 NQMF=       0 NMMI=      0 NMMIF=      0
                NMic=       0 NMicF=      0.
                    Isotopes and Nuclear Properties:
 (Nuclear quadrupole moments (NQMom) in fm**2, nuclear magnetic moments (NMagM)
  in nuclear magnetons)

  Atom         1           2
 IAtWgt=          14          14
 AtmWgt=  14.0030740  14.0030740
 NucSpn=           2           2
 AtZEff=   4.9000000   4.9000000
 NQMom=    2.0440000   2.0440000
 NMagM=    0.4037610   0.4037610
 AtZNuc=   7.0000000   7.0000000
 Leave Link  101 at Fri Sep  6 09:46:16 2024, MaxMem=   104857600 cpu:               0.1 elap:               0.1
 (Enter /Users/asuyarger/Applications/G16/g16/l103.exe)

 GradGradGradGradGradGradGradGradGradGradGradGradGradGradGradGradGradGrad
 Berny optimization.
 Initialization pass.
                           ----------------------------
                           !    Initial Parameters    !
                           ! (Angstroms and Degrees)  !
 --------------------------                            --------------------------
 ! Name  Definition              Value          Derivative Info.                !
 --------------------------------------------------------------------------------
 ! R1    R(1,2)                  1.1171         calculate D2E/DX2 analytically  !
 --------------------------------------------------------------------------------
 Trust Radius=3.00D-01 FncErr=1.00D-07 GrdErr=1.00D-07 EigMax=2.50D+02 EigMin=1.00D-04
 Number of steps in this run=      2 maximum allowed number of steps=      2.
 GradGradGradGradGradGradGradGradGradGradGradGradGradGradGradGradGradGrad

 Leave Link  103 at Fri Sep  6 09:46:16 2024, MaxMem=   104857600 cpu:               0.0 elap:               0.0
 (Enter /Users/asuyarger/Applications/G16/g16/l202.exe)
                          Input orientation:                          
 ---------------------------------------------------------------------
 Center     Atomic      Atomic             Coordinates (Angstroms)
 Number     Number       Type             X           Y           Z
 ---------------------------------------------------------------------
      1          7           0        0.645764    0.526316    0.000000
      2          7           0       -0.471317    0.526316   -0.000000
 ---------------------------------------------------------------------
 Stoichiometry    N2
 Framework group  D*H[C*(N.N)]
 Deg. of freedom     1
 Full point group                 D*H     NOp   8
 RotChk:  IX=0 Diff= 8.66D-17
 Largest Abelian subgroup         D2H     NOp   8
 Largest concise Abelian subgroup C2      NOp   2
                         Standard orientation:                         
 ---------------------------------------------------------------------
 Center     Atomic      Atomic             Coordinates (Angstroms)
 Number     Number       Type             X           Y           Z
 ---------------------------------------------------------------------
      1          7           0        0.000000    0.000000    0.558541
      2          7           0        0.000000    0.000000   -0.558541
 ---------------------------------------------------------------------
 Rotational constants (GHZ):           0.0000000          57.8434586          57.8434586
 Leave Link  202 at Fri Sep  6 09:46:16 2024, MaxMem=   104857600 cpu:               0.0 elap:               0.0
 (Enter /Users/asuyarger/Applications/G16/g16/l301.exe)
 Standard basis: VSTO-6G (5D, 7F)
 Ernie: Thresh=  0.10000D-02 Tol=  0.10000D-05 Strict=F.
  NNHCO=     0 NNPyr=     0 NCTC=     0               EPep=         0.000000000
    EC=         8.195416024  ECS=         0.622952093   EG=        -0.001990626
   EHC=         0.000956414  EAt=       -12.858694572  AtH=         0.360153925
 EPDDG=         0.000000000  ECC=         8.817333906 EAtT=        13.218848496
 There are     2 symmetry adapted cartesian basis functions of AG  symmetry.
 There are     0 symmetry adapted cartesian basis functions of B1G symmetry.
 There are     1 symmetry adapted cartesian basis functions of B2G symmetry.
 There are     1 symmetry adapted cartesian basis functions of B3G symmetry.
 There are     0 symmetry adapted cartesian basis functions of AU  symmetry.
 There are     2 symmetry adapted cartesian basis functions of B1U symmetry.
 There are     1 symmetry adapted cartesian basis functions of B2U symmetry.
 There are     1 symmetry adapted cartesian basis functions of B3U symmetry.
 There are     2 symmetry adapted basis functions of AG  symmetry.
 There are     0 symmetry adapted basis functions of B1G symmetry.
 There are     1 symmetry adapted basis functions of B2G symmetry.
 There are     1 symmetry adapted basis functions of B3G symmetry.
 There are     0 symmetry adapted basis functions of AU  symmetry.
 There are     2 symmetry adapted basis functions of B1U symmetry.
 There are     1 symmetry adapted basis functions of B2U symmetry.
 There are     1 symmetry adapted basis functions of B3U symmetry.
     8 basis functions,    48 primitive gaussians,     8 cartesian basis functions
     5 alpha electrons        5 beta electrons
       nuclear repulsion energy        22.0361824020 Hartrees.
 IExCor=    0 DFT=F Ex=HF Corr=None ExCW=0 ScaHFX=  1.000000
 ScaDFX=  1.000000  1.000000  1.000000  1.000000 ScalE2=  1.000000  1.000000
 IRadAn=      5 IRanWt=     -1 IRanGd=            0 ICorTp=0 IEmpDi=  4
 Integral buffers will be    131072 words long.
 Regular integral format.
 Two-electron integral symmetry is turned off.
 Leave Link  301 at Fri Sep  6 09:46:16 2024, MaxMem=   104857600 cpu:               0.0 elap:               0.0
 (Enter /Users/asuyarger/Applications/G16/g16/l302.exe)
 Do NDO integrals.
 NPDir=0 NMtPBC=     1 NCelOv=     1 NCel=       1 NClECP=     1 NCelD=      1
         NCelK=      1 NCelE2=     1 NClLst=     1 CellRange=     0.0.
 One-electron integrals computed using PRISM.
 NBasis=     8 RedAO= T EigKep=  1.00D+00  NBF=     2     0     1     1     0     2     1     1
 NBsUse=     8 1.00D-06 EigRej= -1.00D+00 NBFU=     2     0     1     1     0     2     1     1
 Leave Link  302 at Fri Sep  6 09:46:16 2024, MaxMem=   104857600 cpu:               0.0 elap:               0.0
 (Enter /Users/asuyarger/Applications/G16/g16/l303.exe)
 DipDrv:  MaxL=1.
 Leave Link  303 at Fri Sep  6 09:46:16 2024, MaxMem=   104857600 cpu:               0.0 elap:               0.0
 (Enter /Users/asuyarger/Applications/G16/g16/l401.exe)
 Initial guess from the checkpoint file:  "N2_PM6_Opt_Freq_Full.chk"
 B after Tr=     0.000000    0.000000    0.000000
         Rot=    1.000000    0.000000    0.000000    0.000000 Ang=   0.00 deg.
 Guess basis will be translated and rotated to current coordinates.
 JPrj=0 DoOrth=T DoCkMO=T.
 Initial guess orbital symmetries:
       Occupied  (SGG) (SGU) (PIU) (PIU) (SGG)
       Virtual   (PIG) (PIG) (SGU)
 The electronic state of the initial guess is 1-SGG.
 Leave Link  401 at Fri Sep  6 09:46:16 2024, MaxMem=   104857600 cpu:               0.0 elap:               0.0
 (Enter /Users/asuyarger/Applications/G16/g16/l502.exe)
 Keep J ints in memory in canonical form, NReq=859239.
 FoFCou: FMM=F IPFlag=           0 FMFlag=           0 FMFlg1=           0
         NFxFlg=           0 DoJE=F BraDBF=F KetDBF=F FulRan=T
         wScrn=  0.000000 ICntrl=       600 IOpCl=  2 I1Cent=           0 NGrid=           0
         NMat0=    1 NMatS0=     20 NMatT0=    0 NMatD0=    1 NMtDS0=    0 NMtDT0=    0
 Symmetry not used in FoFCou.
 Two-electron integral symmetry not used.
 Closed shell SCF:
 Using DIIS extrapolation, IDIIS=  1040.
 Overlap will be assumed to be unity.
 NGot=   104857600 LenX=   104797164 LenY=   104796282
 Requested convergence on RMS density matrix=1.00D-08 within 128 cycles.
 Requested convergence on MAX density matrix=1.00D-06.
 Requested convergence on             energy=1.00D-06.
 No special actions if energy rises.
 An orbital has undefined symmetry, so N**3 symmetry is turned off.

 Cycle   1  Pass 1  IDiag  1:
 E= 0.646480600447994E-01
 DIIS: error= 1.12D-13 at cycle   1 NSaved=   1.
 NSaved= 1 IEnMin= 1 EnMin= 0.646480600447994E-01 IErMin= 1 ErrMin= 1.12D-13
 ErrMax= 1.12D-13  0.00D+00 EMaxC= 1.00D-01 BMatC= 2.00D-25 BMatP= 2.00D-25
 IDIUse=1 WtCom= 1.00D+00 WtEn= 0.00D+00
 Coeff-Com:  0.100D+01
 Coeff:      0.100D+01
 RMSDP=9.61D-14 MaxDP=2.17D-13              OVMax= 0.00D+00

 Cycle   2  Pass 2  IDiag  1:
 SCF Done:  E(RPM6) =  0.646480600448E-01 A.U. after    2 cycles
            NFock=  1  Conv=0.96D-13     -V/T= 1.0031
 KE=-2.071483829268D+01 PE=-1.569764206040D+01 EE= 1.444094601113D+01
 Leave Link  502 at Fri Sep  6 09:46:16 2024, MaxMem=   104857600 cpu:               0.0 elap:               0.0
 (Enter /Users/asuyarger/Applications/G16/g16/l801.exe)
 Range of M.O.s used for correlation:     1     8
 NBasis=     8 NAE=     5 NBE=     5 NFC=     0 NFV=     0
 NROrb=      8 NOA=     5 NOB=     5 NVA=     3 NVB=     3
 Leave Link  801 at Fri Sep  6 09:46:16 2024, MaxMem=   104857600 cpu:               0.0 elap:               0.0
 (Enter /Users/asuyarger/Applications/G16/g16/l1002.exe)
 Minotr:  Closed shell wavefunction.
          Direct CPHF calculation.
          Differentiating once with respect to electric field.
                with respect to dipole field.
          Electric field/nuclear overlap derivatives assumed to be zero.
          Using symmetry in CPHF.
          Requested convergence is 1.0D-08 RMS, and 1.0D-07 maximum.
          NewPWx=F KeepS1=T KeepF1=T KeepIn=T MapXYZ=F SortEE=F KeepMc=T.
 Keep J ints in memory in canonical form, NReq=859587.
 FoFCou: FMM=F IPFlag=           0 FMFlag=           0 FMFlg1=           0
         NFxFlg=           0 DoJE=F BraDBF=F KetDBF=F FulRan=T
         wScrn=  0.000000 ICntrl=       600 IOpCl=  2 I1Cent=           0 NGrid=           0
         NMat0=    1 NMatS0=     20 NMatT0=    0 NMatD0=    1 NMtDS0=    0 NMtDT0=    0
 Symmetry not used in FoFCou.
 Two-electron integral symmetry not used.
          MDV=     104857600 using IRadAn=       1.
          Solving linear equations separately, MaxMat=       0.
          There are     3 degrees of freedom in the 1st order CPHF.  IDoFFX=0 NUNeed=     3.
 LinEq1:  Iter=  0 NonCon=     3 RMS=6.86D-01 Max=1.67D+00 NDo=     3
 AX will form     3 AO Fock derivatives at one time.
 LinEq1:  Iter=  1 NonCon=     1 RMS=6.66D-02 Max=2.24D-01 NDo=     3
 LinEq1:  Iter=  2 NonCon=     1 RMS=3.87D-03 Max=1.19D-02 NDo=     3
 LinEq1:  Iter=  3 NonCon=     0 RMS=2.31D-18 Max=4.99D-18 NDo=     3
 Linear equations converged to 1.000D-08 1.000D-07 after     3 iterations.
 End of Minotr F.D. properties file   721 does not exist.
 End of Minotr F.D. properties file   722 does not exist.
 End of Minotr F.D. properties file   788 does not exist.
 Leave Link 1002 at Fri Sep  6 09:46:16 2024, MaxMem=   104857600 cpu:               0.0 elap:               0.0
 (Enter /Users/asuyarger/Applications/G16/g16/l1101.exe)
 Using compressed storage, NAtomX=     2.
 Will process      3 centers per pass.
 Leave Link 1101 at Fri Sep  6 09:46:16 2024, MaxMem=   104857600 cpu:               0.0 elap:               0.0
 (Enter /Users/asuyarger/Applications/G16/g16/l1102.exe)
 Symmetrizing basis deriv contribution to polar:
 IMax=3 JMax=2 DiffMx= 0.00D+00
 Leave Link 1102 at Fri Sep  6 09:46:16 2024, MaxMem=   104857600 cpu:               0.0 elap:               0.0
 (Enter /Users/asuyarger/Applications/G16/g16/l1110.exe)
 Forming Gx(P) for the SCF density, NAtomX=     2.
 Integral derivatives from FoFJK, PRISM(SPDF).
 Do as many integral derivatives as possible in FoFJK.
 G2DrvN: MDV=     104798456.
 G2DrvN: will do     3 centers at a time, making    1 passes.
 PxScal for G2LodP:  IOpCl= 0 ISclPx=1 IMOff=     1 NMtTot=     4 NTT=      36 ScalPx= 1.64D+00
 Calling FoFCou, ICntrl=  3107 FMM=F I1Cent=   0 AccDes= 0.00D+00.
 FoFJK:  IHMeth=40 ICntrl=    3107 DoSepK=F KAlg= 0 I1Cent=           0 FoldK=F
 IRaf=         0 NMat=       1 IRICut=       1 DoRegI=T DoRafI=F ISym2E= 0 IDoP0=3 IntGTp=3.
 FoFCou: FMM=F IPFlag=           0 FMFlag=      100000 FMFlg1=           0
         NFxFlg=           0 DoJE=F BraDBF=F KetDBF=F FulRan=T
         wScrn=  0.000000 ICntrl=      3107 IOpCl=  0 I1Cent=           0 NGrid=           0
         NMat0=    1 NMatS0=      1 NMatT0=    0 NMatD0=    4 NMtDS0=    3 NMtDT0=    0
 Symmetry not used in FoFCou.
 End of G2Drv F.D. properties file   721 does not exist.
 End of G2Drv F.D. properties file   722 does not exist.
 End of G2Drv F.D. properties file   788 does not exist.
 Leave Link 1110 at Fri Sep  6 09:46:16 2024, MaxMem=   104857600 cpu:               0.0 elap:               0.0
 (Enter /Users/asuyarger/Applications/G16/g16/l1002.exe)
 Minotr:  Closed shell wavefunction.
          IDoAtm=11
          Direct CPHF calculation.
          Differentiating once with respect to electric field.
                with respect to dipole field.
          Differentiating once with respect to nuclear coordinates.
          Electric field/nuclear overlap derivatives assumed to be zero.
          Using symmetry in CPHF.
          Requested convergence is 1.0D-08 RMS, and 1.0D-07 maximum.
          NewPWx=T KeepS1=F KeepF1=F KeepIn=T MapXYZ=F SortEE=F KeepMc=T.
 Keep J ints in memory in canonical form, NReq=859634.
 FoFCou: FMM=F IPFlag=           0 FMFlag=           0 FMFlg1=           0
         NFxFlg=           0 DoJE=F BraDBF=F KetDBF=F FulRan=T
         wScrn=  0.000000 ICntrl=       600 IOpCl=  2 I1Cent=           0 NGrid=           0
         NMat0=    1 NMatS0=     20 NMatT0=    0 NMatD0=    1 NMtDS0=    0 NMtDT0=    0
 Symmetry not used in FoFCou.
 Two-electron integral symmetry not used.
          MDV=     104857600 using IRadAn=       1.
          Solving linear equations separately, MaxMat=       0.
          There are     6 degrees of freedom in the 1st order CPHF.  IDoFFX=4 NUNeed=     6.
 Recover   3 previous solutions.
 LinEq1:  Iter=  0 NonCon=     3 RMS=9.13D-02 Max=2.42D-01 NDo=     3
 AX will form     3 AO Fock derivatives at one time.
 LinEq1:  Iter=  1 NonCon=     2 RMS=1.02D-02 Max=2.89D-02 NDo=     3
 LinEq1:  Iter=  2 NonCon=     2 RMS=9.04D-04 Max=2.49D-03 NDo=     3
 LinEq1:  Iter=  3 NonCon=     0 RMS=2.26D-18 Max=4.78D-18 NDo=     3
 Linear equations converged to 1.000D-08 1.000D-07 after     3 iterations.
 FullF1:  Do perturbations      1 to       3.
 Isotropic polarizability for W=    0.000000        7.08 Bohr**3.
 FullF1:  Do perturbations      1 to       6.
 End of Minotr F.D. properties file   721 does not exist.
 End of Minotr F.D. properties file   722 does not exist.
 End of Minotr F.D. properties file   788 does not exist.
 Leave Link 1002 at Fri Sep  6 09:46:16 2024, MaxMem=   104857600 cpu:               0.0 elap:               0.0
 (Enter /Users/asuyarger/Applications/G16/g16/l601.exe)
 Copying SCF densities to generalized density rwf, IOpCl= 0 IROHF=0.

 **********************************************************************

            Population analysis using the SCF density.

 **********************************************************************

 Orbital symmetries:
       Occupied  (SGG) (SGU) (PIU) (PIU) (SGG)
       Virtual   (PIG) (PIG) (SGU)
 The electronic state is 1-SGG.
 Alpha  occ. eigenvalues --   -1.37836  -0.69265  -0.61076  -0.61076  -0.47276
 Alpha virt. eigenvalues --   -0.00116  -0.00116   0.12921
     Molecular Orbital Coefficients:
                           1         2         3         4         5
                       (SGG)--O  (SGU)--O  (PIU)--O  (PIU)--O  (SGG)--O
     Eigenvalues --    -1.37836  -0.69265  -0.61076  -0.61076  -0.47276
   1 1   N  1S          0.59293   0.63354   0.00000  -0.00000   0.38528
   2        1PX         0.00000   0.00000  -0.13852   0.69341  -0.00000
   3        1PY         0.00000  -0.00000   0.69341   0.13852  -0.00000
   4        1PZ        -0.38528   0.31405   0.00000  -0.00000   0.59293
   5 2   N  1S          0.59293  -0.63354  -0.00000   0.00000   0.38528
   6        1PX        -0.00000   0.00000  -0.13852   0.69341   0.00000
   7        1PY         0.00000  -0.00000   0.69341   0.13852  -0.00000
   8        1PZ         0.38528   0.31405   0.00000   0.00000  -0.59293
                           6         7         8
                       (PIG)--V  (PIG)--V  (SGU)--V
     Eigenvalues --    -0.00116  -0.00116   0.12921
   1 1   N  1S         -0.00000   0.00000  -0.31405
   2        1PX         0.04905   0.70540  -0.00000
   3        1PY         0.70540  -0.04905   0.00000
   4        1PZ        -0.00000   0.00000   0.63354
   5 2   N  1S          0.00000   0.00000   0.31405
   6        1PX        -0.04905  -0.70540   0.00000
   7        1PY        -0.70540   0.04905  -0.00000
   8        1PZ        -0.00000  -0.00000   0.63354
     Density Matrix:
                           1         2         3         4         5
   1 1   N  1S          1.80275
   2        1PX        -0.00000   1.00000
   3        1PY         0.00000   0.00000   1.00000
   4        1PZ         0.39792  -0.00000  -0.00000   1.19725
   5 2   N  1S          0.19725  -0.00000  -0.00000  -0.39792   1.80275
   6        1PX         0.00000   1.00000  -0.00000   0.00000   0.00000
   7        1PY         0.00000   0.00000   1.00000  -0.00000   0.00000
   8        1PZ         0.39792   0.00000   0.00000  -0.80275  -0.39792
                           6         7         8
   6        1PX         1.00000
   7        1PY        -0.00000   1.00000
   8        1PZ        -0.00000  -0.00000   1.19725
    Full Mulliken population analysis:
                           1         2         3         4         5
   1 1   N  1S          1.80275
   2        1PX         0.00000   1.00000
   3        1PY         0.00000   0.00000   1.00000
   4        1PZ         0.00000   0.00000   0.00000   1.19725
   5 2   N  1S          0.00000   0.00000   0.00000   0.00000   1.80275
   6        1PX         0.00000   0.00000   0.00000   0.00000   0.00000
   7        1PY         0.00000   0.00000   0.00000   0.00000   0.00000
   8        1PZ         0.00000   0.00000   0.00000   0.00000   0.00000
                           6         7         8
   6        1PX         1.00000
   7        1PY         0.00000   1.00000
   8        1PZ         0.00000   0.00000   1.19725
     Gross orbital populations:
                           1
   1 1   N  1S          1.80275
   2        1PX         1.00000
   3        1PY         1.00000
   4        1PZ         1.19725
   5 2   N  1S          1.80275
   6        1PX         1.00000
   7        1PY         1.00000
   8        1PZ         1.19725
          Condensed to atoms (all electrons):
               1          2
     1  N    5.000000   0.000000
     2  N    0.000000   5.000000
 Mulliken charges:
               1
     1  N   -0.000000
     2  N   -0.000000
 Sum of Mulliken charges =  -0.00000
 Mulliken charges with hydrogens summed into heavy atoms:
               1
     1  N   -0.000000
     2  N   -0.000000
 APT charges:
               1
     1  N   -0.000000
     2  N   -0.000000
 Sum of APT charges =  -0.00000
 APT charges with hydrogens summed into heavy atoms:
               1
     1  N   -0.000000
     2  N   -0.000000
 Charge=             -0.0000 electrons
 Dipole moment (field-independent basis, Debye):
    X=              0.0000    Y=             -0.0000    Z=              0.0000  Tot=              0.0000
 N-N= 2.203618240200D+01 E-N=-1.569764206040D+01  KE=-2.071483829268D+01
 Symmetry AG   KE=-8.673457665958D+00
 Symmetry B1G  KE= 0.000000000000D+00
 Symmetry B2G  KE= 0.000000000000D+00
 Symmetry B3G  KE=-1.878988026949D-16
 Symmetry AU   KE= 0.000000000000D+00
 Symmetry B1U  KE=-4.142865760625D+00
 Symmetry B2U  KE=-3.949257433051D+00
 Symmetry B3U  KE=-3.949257433051D+00
 StAtR1:  DoIntr=F IAtCor=3 NETot=      10 Failed=F Sum=  4.00D+00 SumC=  0.00D+00
 There are a total of       42604 grid points.
 ElSum from          density=       12.8657744201
 ElSum from atomic densities=       14.0000000107
 Hirshfeld populations at iteration   1 (CA, CB, DipXYZ):
               1          2          3          4          5
     1  N    3.216444   3.216444  -0.000000  -0.000000   0.477089
     2  N    3.216444   3.216444  -0.000000  -0.000000  -0.477089
       Tot   6.432887   6.432887  -0.000000  -0.000000  -0.000000

 Dip from Atomic Chgs             -0.000000   0.000000  -0.000000
         Total Dipole             -0.000000  -0.000000  -0.000000

 Hirshfeld charges, spin densities, dipoles, and CM5 charges using IRadAn=      5:
              Q-H        S-H        Dx         Dy         Dz        Q-CM5   
     1  N   -1.432887   0.000000  -0.000000  -0.000000   0.477089  -1.432887
     2  N   -1.432887   0.000000  -0.000000  -0.000000  -0.477089  -1.432887
       Tot  -2.865774   0.000000  -0.000000  -0.000000  -0.000000  -2.865774
 Hirshfeld charges with hydrogens summed into heavy atoms:
              Q-H       Q-CM5   
     1  N   -1.432887  -1.432887
     2  N   -1.432887  -1.432887
 
 EQQ= 0.000000000000E+00 EQD= 0.000000000000E+00 EDD=-0.241962481903E-01
 EQQ+QD+DD=-0.241962481903E-01
 
 Orbital energies and kinetic energies (alpha):
                                 1                 2
   1         (SGG)--O         -1.378362         -2.459656
   2         (SGU)--O         -0.692649         -2.071433
   3         (PIU)--O         -0.610760         -1.974629
   4         (PIU)--O         -0.610760         -1.974629
   5         (SGG)--O         -0.472764         -1.877073
   6         (PIG)--V         -0.001160         -1.692442
   7         (PIG)--V         -0.001160         -1.692442
   8         (SGU)--V          0.129210         -1.506015
 Total kinetic energy from orbitals=-2.071483829268D+01
  Exact polarizability:   2.549   0.000   2.549   0.000   0.000  16.137
 Approx polarizability:   1.942   0.000   1.942   0.000   0.000  17.300
 Leave Link  601 at Fri Sep  6 09:46:16 2024, MaxMem=   104857600 cpu:               0.0 elap:               0.0
 (Enter /Users/asuyarger/Applications/G16/g16/l701.exe)
 ... and contract with generalized density number  0.
 Compute integral second derivatives.
 Leave Link  701 at Fri Sep  6 09:46:16 2024, MaxMem=   104857600 cpu:               0.0 elap:               0.0
 (Enter /Users/asuyarger/Applications/G16/g16/l702.exe)
 L702 exits ... SP integral derivatives will be done elsewhere.
 Leave Link  702 at Fri Sep  6 09:46:16 2024, MaxMem=   104857600 cpu:               0.0 elap:               0.0
 (Enter /Users/asuyarger/Applications/G16/g16/l703.exe)
 Integral derivatives from FoFJK, PRISM(SPDF).
 Compute integral second derivatives, UseDBF=F ICtDFT=           0.
 Calling FoFJK, ICntrl=    100127 FMM=F ISym2X=1 I1Cent= 0 IOpClX= 0 NMat=1 NMatS=1 NMatT=0.
 FoFJK:  IHMeth=40 ICntrl=  100127 DoSepK=F KAlg= 0 I1Cent=           0 FoldK=F
 IRaf=         0 NMat=       1 IRICut=       1 DoRegI=T DoRafI=F ISym2E= 1 IDoP0=3 IntGTp=3.
 FoFCou: FMM=F IPFlag=           0 FMFlag=      100000 FMFlg1=         800
         NFxFlg=           0 DoJE=F BraDBF=F KetDBF=F FulRan=T
         wScrn=  0.000000 ICntrl=    100127 IOpCl=  0 I1Cent=           0 NGrid=           0
         NMat0=    1 NMatS0=      1 NMatT0=    0 NMatD0=    1 NMtDS0=    0 NMtDT0=    0
 Petite list used in FoFCou.
 Leave Link  703 at Fri Sep  6 09:46:16 2024, MaxMem=   104857600 cpu:               0.0 elap:               0.0
 (Enter /Users/asuyarger/Applications/G16/g16/l716.exe)
 Dipole        = 7.18257688D-17-6.13339049D-16 0.00000000D+00
 Polarizability= 2.54882996D+00 4.54857414D-16 2.54882996D+00
                 6.31992613D-16 1.52626603D-15 1.61371387D+01
 HyperPolar    = 4.24249425D-15-4.97826967D-15 1.44300155D-15
                -1.50213194D-14 5.60470690D-15-9.13981387D-16
                -1.67164996D-15-8.32108253D-15 5.07353338D-15
                -4.62593271D-14
 Full mass-weighted force constant matrix:
 Low frequencies ---   -0.0000    0.0000    0.0000    1.9892    1.9892 2418.3991
 Diagonal vibrational polarizability:
        0.0000000       0.0000000       0.0000000
 Diagonal vibrational hyperpolarizability:
        0.0000000      -0.0000000       0.0000000
 Harmonic frequencies (cm**-1), IR intensities (KM/Mole), Raman scattering
 activities (A**4/AMU), depolarization ratios for plane and unpolarized
 incident light, reduced masses (AMU), force constants (mDyne/A),
 and normal coordinates:
                      1
                     SGG
 Frequencies --   2418.3991
 Red. masses --     14.0031
 Frc consts  --     48.2536
 IR Inten    --      0.0000
 Raman Activ --     52.6321
 Depolar (P) --      0.2704
 Depolar (U) --      0.4258
  Atom  AN      X      Y      Z
     1   7    -0.00   0.00   0.71
     2   7     0.00   0.00  -0.71

 -------------------
 - Thermochemistry -
 -------------------
 Temperature   298.150 Kelvin.  Pressure   1.00000 Atm.
 Atom     1 has atomic number  7 and mass  14.00307
 Atom     2 has atomic number  7 and mass  14.00307
 Molecular mass:    28.00615 amu.
 Principal axes and moments of inertia in atomic units:
                           1         2         3
     Eigenvalues --     0.00000  31.20044  31.20044
           X           -0.00000   1.00000  -0.00000
           Y            0.00000   0.00000   1.00000
           Z            1.00000   0.00000  -0.00000
 This molecule is a prolate symmetric top.
 Rotational symmetry number  2.
 Rotational temperature (Kelvin)      2.77605
 Rotational constant (GHZ):          57.843459
 Zero-point vibrational energy      14465.2 (Joules/Mol)
                                    3.45728 (Kcal/Mol)
 Vibrational temperatures:   3479.54
          (Kelvin)
 
 Zero-point correction=                           0.005510 (Hartree/Particle)
 Thermal correction to Energy=                    0.007870
 Thermal correction to Enthalpy=                  0.008814
 Thermal correction to Gibbs Free Energy=        -0.012960
 Sum of electronic and zero-point Energies=              0.070158
 Sum of electronic and thermal Energies=                 0.072518
 Sum of electronic and thermal Enthalpies=               0.073462
 Sum of electronic and thermal Free Energies=            0.051688
 
                     E (Thermal)             CV                S
                      KCal/Mol        Cal/Mol-Kelvin    Cal/Mol-Kelvin
 Total                    4.939              4.970             45.827
 Electronic               0.000              0.000              0.000
 Translational            0.889              2.981             35.924
 Rotational               0.592              1.987              9.903
 Vibrational              3.457              0.002              0.000
                       Q            Log10(Q)             Ln(Q)
 Total Bot       0.914356D+06          5.961115         13.725975
 Total V=0       0.312835D+09          8.495315         19.561187
 Vib (Bot)       0.292283D-02         -2.534197         -5.835203
 Vib (V=0)       0.100001D+01          0.000004          0.000009
 Electronic      0.100000D+01          0.000000          0.000000
 Translational   0.582551D+07          6.765334         15.577757
 Rotational      0.537004D+02          1.729978          3.983421
 ***** Axes restored to original set *****
 -------------------------------------------------------------------
 Center     Atomic                   Forces (Hartrees/Bohr)
 Number     Number              X              Y              Z
 -------------------------------------------------------------------
      1        7          -0.000002213    0.000000000    0.000000000
      2        7           0.000002213   -0.000000000   -0.000000000
 -------------------------------------------------------------------
 Cartesian Forces:  Max     0.000002213 RMS     0.000001278
 Force constants in Cartesian coordinates: 
                1             2             3             4             5 
      1  0.154968D+01
      2  0.000000D+00  0.104841D-05
      3  0.000000D+00  0.000000D+00  0.104841D-05
      4 -0.154968D+01  0.000000D+00  0.000000D+00  0.154968D+01
      5  0.000000D+00 -0.104841D-05  0.000000D+00  0.000000D+00  0.104841D-05
      6  0.000000D+00  0.000000D+00 -0.104841D-05  0.000000D+00  0.000000D+00
                6 
      6  0.104841D-05
 FormGI is forming the generalized inverse of G from B-inverse, IUseBI=4.
 Force constants in internal coordinates: 
                1 
      1  0.154968D+01
 Leave Link  716 at Fri Sep  6 09:46:16 2024, MaxMem=   104857600 cpu:               0.0 elap:               0.0
 (Enter /Users/asuyarger/Applications/G16/g16/l103.exe)

 GradGradGradGradGradGradGradGradGradGradGradGradGradGradGradGradGradGrad
 Berny optimization.
 Red2BG is reusing G-inverse.
 Internal  Forces:  Max     0.000002213 RMS     0.000002213
 Search for a local minimum.
 Step number   1 out of a maximum of    2
 All quantities printed in internal units (Hartrees-Bohrs-Radians)
 Second derivative matrix not updated -- analytic derivatives used.
 The second derivative matrix:
                          R1
           R1           1.54968
 ITU=  0
     Eigenvalues ---    1.54968
 Angle between quadratic step and forces=   0.00 degrees.
 Linear search not attempted -- first point.
 Iteration  1 RMS(Cart)=  0.00000101 RMS(Int)=  0.00000000
 Iteration  2 RMS(Cart)=  0.00000000 RMS(Int)=  0.00000000
 ITry= 1 IFail=0 DXMaxC= 7.14D-07 DCOld= 1.00D+10 DXMaxT= 3.00D-01 DXLimC= 3.00D+00 Rises=F
 ClnCor:  largest displacement from symmetrization is 4.37D-23 for atom     2.
 Variable       Old X    -DE/DX   Delta X   Delta X   Delta X     New X
                                 (Linear)    (Quad)   (Total)
    R1        2.11098  -0.00000   0.00000  -0.00000  -0.00000   2.11098
         Item               Value     Threshold  Converged?
 Maximum Force            0.000002     0.000450     YES
 RMS     Force            0.000002     0.000300     YES
 Maximum Displacement     0.000001     0.001800     YES
 RMS     Displacement     0.000001     0.001200     YES
 Predicted change in Energy=-1.580360D-12
 Optimization completed.
    -- Stationary point found.
                           ----------------------------
                           !   Optimized Parameters   !
                           ! (Angstroms and Degrees)  !
 --------------------------                            --------------------------
 ! Name  Definition              Value          Derivative Info.                !
 --------------------------------------------------------------------------------
 ! R1    R(1,2)                  1.1171         -DE/DX =    0.0                 !
 --------------------------------------------------------------------------------
 GradGradGradGradGradGradGradGradGradGradGradGradGradGradGradGradGradGrad

 Leave Link  103 at Fri Sep  6 09:46:16 2024, MaxMem=   104857600 cpu:               0.0 elap:               0.0
 (Enter /Users/asuyarger/Applications/G16/g16/l9999.exe)
 Dipole is zero, so no output in dipole orientation.

 ----------------------------------------------------------------------

 Electric dipole moment (input orientation):
 (Debye = 10**-18 statcoulomb cm , SI units = C m)
                  (au)            (Debye)         (10**-30 SI)
   Tot        0.000000D+00      0.000000D+00      0.000000D+00
   x          0.000000D+00      0.000000D+00      0.000000D+00
   y          0.000000D+00      0.000000D+00      0.000000D+00
   z          0.000000D+00      0.000000D+00      0.000000D+00

 Dipole polarizability, Alpha (input orientation).
 (esu units = cm**3 , SI units = C**2 m**2 J**-1)
 Alpha(0;0):
               (au)            (10**-24 esu)      (10**-40 SI)
   iso        0.707827D+01      0.104889D+01      0.116705D+01
   aniso      0.135883D+02      0.201358D+01      0.224041D+01
   xx         0.161371D+02      0.239128D+01      0.266065D+01
   yx         0.000000D+00      0.000000D+00      0.000000D+00
   yy         0.254883D+01      0.377698D+00      0.420245D+00
   zx         0.000000D+00      0.000000D+00      0.000000D+00
   zy         0.000000D+00      0.000000D+00      0.000000D+00
   zz         0.254883D+01      0.377698D+00      0.420245D+00

 ----------------------------------------------------------------------
 1\1\GINC-JEFFSMACSTUDIO\Freq\RPM6\ZDO\N2\ROOT\06-Sep-2024\0\\#P Geom=A
 llCheck Guess=TCheck SCRF=Check GenChk RPM6/ZDO Freq\\N2 Opt Freq PM6\
 \0,1\N,0.6457643067,0.52631578,0.\N,-0.4713169867,0.52631578,0.\\Versi
 on=EM64M-G16RevA.03\State=1-SGG\HF=0.0646481\RMSD=9.611e-14\RMSF=1.278
 e-06\ZeroPoint=0.0055095\Thermal=0.0078701\Dipole=0.,0.,0.\DipoleDeriv
 =0.,0.,0.,0.,0.,0.,0.,0.,0.,0.,0.,0.,0.,0.,0.,0.,0.,0.\Polar=16.137138
 7,0.,2.54883,0.,0.,2.54883\PolarDeriv=19.4236987,0.,1.1627346,0.,0.,1.
 1627346,0.,6.4369741,0.,0.,0.,0.,0.,0.,0.,6.4369741,0.,0.,-19.4236987,
 0.,-1.1627346,0.,0.,-1.1627346,0.,-6.4369741,0.,0.,0.,0.,0.,0.,0.,-6.4
 369741,0.,0.\HyperPolar=0.,0.,0.,0.,0.,0.,0.,0.,0.,0.\PG=D*H [C*(N1.N1
 )]\NImag=0\\1.54967549,0.,0.00000105,0.,0.,0.00000105,-1.54967549,0.,0
 .,1.54967549,0.,-0.00000105,0.,0.,0.00000105,0.,0.,-0.00000105,0.,0.,0
 .00000105\\0.00000221,0.,0.,-0.00000221,0.,0.\\\@


 THOSE WHO ASPIRE NOT TO GUESS AND DIVINE,
 BUT TO DISCOVER AND KNOW, WHO PROPOSE NOT TO DEVISE 
 MIMIC AND FABULOUS WORLDS OF THEIR OWN, BUT TO 
 EXAMINE AND DISSECT THE NATURE OF THIS VERY WORLD 
 ITSELF, MUST GO TO THE FACTS THEMSELVES FOR EVERYTHING.

                               -- FRANCIS BACON, 1620
 Job cpu time:       0 days  0 hours  0 minutes  0.6 seconds.
 Elapsed time:       0 days  0 hours  0 minutes  0.5 seconds.
 File lengths (MBytes):  RWF=      6 Int=      0 D2E=      0 Chk=      2 Scr=      1
 Normal termination of Gaussian 16 at Fri Sep  6 09:46:16 2024.
