 Entering Gaussian System, Link 0=g16
 Input=/Users/asuyarger/Downloads/N2_uHF_6311pp2d3p_Opt_Freq_Full_NBO.gjf
 Output=/Users/asuyarger/Downloads/N2_uHF_6311pp2d3p_Opt_Freq_Full_NBO.log
 Initial command:
 /Users/asuyarger/Applications/G16/g16/l1.exe "/Users/asuyarger/Applications/G16/scratch/Gau-88827.inp" -scrdir="/Users/asuyarger/Applications/G16/scratch/"
 Entering Link 1 = /Users/asuyarger/Applications/G16/g16/l1.exe PID=     88828.
  
 Copyright (c) 1988,1990,1992,1993,1995,1998,2003,2009,2016,
            Gaussian, Inc.  All Rights Reserved.
  
 This is part of the Gaussian(R) 16 program.  It is based on
 the Gaussian(R) 09 system (copyright 2009, Gaussian, Inc.),
 the Gaussian(R) 03 system (copyright 2003, Gaussian, Inc.),
 the Gaussian(R) 98 system (copyright 1998, Gaussian, Inc.),
 the Gaussian(R) 94 system (copyright 1995, Gaussian, Inc.),
 the Gaussian 92(TM) system (copyright 1992, Gaussian, Inc.),
 the Gaussian 90(TM) system (copyright 1990, Gaussian, Inc.),
 the Gaussian 88(TM) system (copyright 1988, Gaussian, Inc.),
 the Gaussian 86(TM) system (copyright 1986, Carnegie Mellon
 University), and the Gaussian 82(TM) system (copyright 1983,
 Carnegie Mellon University). Gaussian is a federally registered
 trademark of Gaussian, Inc.
  
 This software contains proprietary and confidential information,
 including trade secrets, belonging to Gaussian, Inc.
  
 This software is provided under written license and may be
 used, copied, transmitted, or stored only in accord with that
 written license.
  
 The following legend is applicable only to US Government
 contracts under FAR:
  
                    RESTRICTED RIGHTS LEGEND
  
 Use, reproduction and disclosure by the US Government is
 subject to restrictions as set forth in subparagraphs (a)
 and (c) of the Commercial Computer Software - Restricted
 Rights clause in FAR 52.227-19.
  
 Gaussian, Inc.
 340 Quinnipiac St., Bldg. 40, Wallingford CT 06492
  
  
 ---------------------------------------------------------------
 Warning -- This program may not be used in any manner that
 competes with the business of Gaussian, Inc. or will provide
 assistance to any competitor of Gaussian, Inc.  The licensee
 of this program is prohibited from giving any competitor of
 Gaussian, Inc. access to this program.  By using this program,
 the user acknowledges that Gaussian, Inc. is engaged in the
 business of creating and licensing software in the field of
 computational chemistry and represents and warrants to the
 licensee that it is not a competitor of Gaussian, Inc. and that
 it will not use this program in any manner prohibited above.
 ---------------------------------------------------------------
  

 Cite this work as:
 Gaussian 16, Revision A.03,
 M. J. Frisch, G. W. Trucks, H. B. Schlegel, G. E. Scuseria, 
 M. A. Robb, J. R. Cheeseman, G. Scalmani, V. Barone, 
 G. A. Petersson, H. Nakatsuji, X. Li, M. Caricato, A. V. Marenich, 
 J. Bloino, B. G. Janesko, R. Gomperts, B. Mennucci, H. P. Hratchian, 
 J. V. Ortiz, A. F. Izmaylov, J. L. Sonnenberg, D. Williams-Young, 
 F. Ding, F. Lipparini, F. Egidi, J. Goings, B. Peng, A. Petrone, 
 T. Henderson, D. Ranasinghe, V. G. Zakrzewski, J. Gao, N. Rega, 
 G. Zheng, W. Liang, M. Hada, M. Ehara, K. Toyota, R. Fukuda, 
 J. Hasegawa, M. Ishida, T. Nakajima, Y. Honda, O. Kitao, H. Nakai, 
 T. Vreven, K. Throssell, J. A. Montgomery, Jr., J. E. Peralta, 
 F. Ogliaro, M. J. Bearpark, J. J. Heyd, E. N. Brothers, K. N. Kudin, 
 V. N. Staroverov, T. A. Keith, R. Kobayashi, J. Normand, 
 K. Raghavachari, A. P. Rendell, J. C. Burant, S. S. Iyengar, 
 J. Tomasi, M. Cossi, J. M. Millam, M. Klene, C. Adamo, R. Cammi, 
 J. W. Ochterski, R. L. Martin, K. Morokuma, O. Farkas, 
 J. B. Foresman, and D. J. Fox, Gaussian, Inc., Wallingford CT, 2016.
 
 ******************************************
 Gaussian 16:  EM64M-G16RevA.03 25-Dec-2016
                 6-Sep-2024 
 ******************************************
 %chk=N2_uHF_6311pp2d3p_Opt_Freq_Full_NBO.chk
 ----------------------------------------------------------------------
 #p opt=tight freq=raman uhf/6-311++g(2d,3p) guess=save pop=(hirshfeld,
 full,nbo) geom=connectivity polar
 ----------------------------------------------------------------------
 1/7=10,18=20,19=15,38=1,57=2/1,3;
 2/9=110,12=2,17=6,18=5,40=1/2;
 3/5=4,6=6,7=1512,11=2,25=1,30=1,71=1,116=2/1,2,3;
 4//1;
 5/5=2,38=5,98=1/2;
 6/7=3,28=1,40=1,79=1/1,7;
 7//1,2,3,16;
 1/7=10,18=20,19=15/3(2);
 2/9=110/2;
 99//99;
 2/9=110/2;
 3/5=4,6=6,7=1512,11=2,25=1,30=1,71=1,116=2/1,2,3;
 4/5=5,16=3,69=1/1;
 5/5=2,38=5,98=1/2;
 7//1,2,3,16;
 1/7=10,18=20,19=15/3(-5);
 2/9=110/2;
 6/7=3,19=2,28=1,40=1,79=1/1,7;
 99/9=1/99;
 Leave Link    1 at Fri Sep  6 10:28:20 2024, MaxMem=           0 cpu:               0.0 elap:               0.0
 (Enter /Users/asuyarger/Applications/G16/g16/l101.exe)
 --------------------------------------------
 N2 uHF 6-311++g(2d,3p) Opt Freq - Full - NBO
 --------------------------------------------
 Symbolic Z-matrix:
 Charge =  0 Multiplicity = 1
 N                     1.03978   0.17179   0. 
 N                    -0.05222   0.17179   0. 
 
 ITRead=  0  0
 MicOpt= -1 -1
 NAtoms=      2 NQM=        2 NQMF=       0 NMMI=      0 NMMIF=      0
                NMic=       0 NMicF=      0.
                    Isotopes and Nuclear Properties:
 (Nuclear quadrupole moments (NQMom) in fm**2, nuclear magnetic moments (NMagM)
  in nuclear magnetons)

  Atom         1           2
 IAtWgt=          14          14
 AtmWgt=  14.0030740  14.0030740
 NucSpn=           2           2
 AtZEff=  -0.0000000  -0.0000000
 NQMom=    2.0440000   2.0440000
 NMagM=    0.4037610   0.4037610
 AtZNuc=   7.0000000   7.0000000
 Leave Link  101 at Fri Sep  6 10:28:21 2024, MaxMem=   104857600 cpu:               0.1 elap:               0.1
 (Enter /Users/asuyarger/Applications/G16/g16/l103.exe)

 GradGradGradGradGradGradGradGradGradGradGradGradGradGradGradGradGradGrad
 Berny optimization.
 Initialization pass.
                           ----------------------------
                           !    Initial Parameters    !
                           ! (Angstroms and Degrees)  !
 --------------------------                            --------------------------
 ! Name  Definition              Value          Derivative Info.                !
 --------------------------------------------------------------------------------
 ! R1    R(1,2)                  1.092          estimate D2E/DX2                !
 --------------------------------------------------------------------------------
 Trust Radius=3.00D-01 FncErr=1.00D-07 GrdErr=1.00D-07 EigMax=2.50D+02 EigMin=1.00D-04
 Number of steps in this run=     20 maximum allowed number of steps=    100.
 GradGradGradGradGradGradGradGradGradGradGradGradGradGradGradGradGradGrad

 Leave Link  103 at Fri Sep  6 10:28:21 2024, MaxMem=   104857600 cpu:               0.0 elap:               0.0
 (Enter /Users/asuyarger/Applications/G16/g16/l202.exe)
                          Input orientation:                          
 ---------------------------------------------------------------------
 Center     Atomic      Atomic             Coordinates (Angstroms)
 Number     Number       Type             X           Y           Z
 ---------------------------------------------------------------------
      1          7           0        1.039783    0.171790    0.000000
      2          7           0       -0.052217    0.171790    0.000000
 ---------------------------------------------------------------------
 Stoichiometry    N2
 Framework group  D*H[C*(N.N)]
 Deg. of freedom     1
 Full point group                 D*H     NOp   8
 Largest Abelian subgroup         D2H     NOp   8
 Largest concise Abelian subgroup C2      NOp   2
                         Standard orientation:                         
 ---------------------------------------------------------------------
 Center     Atomic      Atomic             Coordinates (Angstroms)
 Number     Number       Type             X           Y           Z
 ---------------------------------------------------------------------
      1          7           0        0.000000    0.000000    0.546000
      2          7           0        0.000000    0.000000   -0.546000
 ---------------------------------------------------------------------
 Rotational constants (GHZ):           0.0000000          60.5310956          60.5310956
 Leave Link  202 at Fri Sep  6 10:28:21 2024, MaxMem=   104857600 cpu:               0.0 elap:               0.0
 (Enter /Users/asuyarger/Applications/G16/g16/l301.exe)
 Standard basis: 6-311++G(2d,3p) (5D, 7F)
 Ernie: Thresh=  0.10000D-02 Tol=  0.10000D-05 Strict=F.
 There are    15 symmetry adapted cartesian basis functions of AG  symmetry.
 There are     2 symmetry adapted cartesian basis functions of B1G symmetry.
 There are     6 symmetry adapted cartesian basis functions of B2G symmetry.
 There are     6 symmetry adapted cartesian basis functions of B3G symmetry.
 There are     2 symmetry adapted cartesian basis functions of AU  symmetry.
 There are    15 symmetry adapted cartesian basis functions of B1U symmetry.
 There are     6 symmetry adapted cartesian basis functions of B2U symmetry.
 There are     6 symmetry adapted cartesian basis functions of B3U symmetry.
 There are    13 symmetry adapted basis functions of AG  symmetry.
 There are     2 symmetry adapted basis functions of B1G symmetry.
 There are     6 symmetry adapted basis functions of B2G symmetry.
 There are     6 symmetry adapted basis functions of B3G symmetry.
 There are     2 symmetry adapted basis functions of AU  symmetry.
 There are    13 symmetry adapted basis functions of B1U symmetry.
 There are     6 symmetry adapted basis functions of B2U symmetry.
 There are     6 symmetry adapted basis functions of B3U symmetry.
    54 basis functions,    84 primitive gaussians,    58 cartesian basis functions
     7 alpha electrons        7 beta electrons
       nuclear repulsion energy        23.7451312592 Hartrees.
 IExCor=    0 DFT=F Ex=HF Corr=None ExCW=0 ScaHFX=  1.000000
 ScaDFX=  1.000000  1.000000  1.000000  1.000000 ScalE2=  1.000000  1.000000
 IRadAn=      5 IRanWt=     -1 IRanGd=            0 ICorTp=0 IEmpDi=  4
 NAtoms=    2 NActive=    2 NUniq=    1 SFac= 4.00D+00 NAtFMM=   60 NAOKFM=F Big=F
 Integral buffers will be    131072 words long.
 Raffenetti 2 integral format.
 Two-electron integral symmetry is turned on.
 Leave Link  301 at Fri Sep  6 10:28:21 2024, MaxMem=   104857600 cpu:               0.0 elap:               0.0
 (Enter /Users/asuyarger/Applications/G16/g16/l302.exe)
 NPDir=0 NMtPBC=     1 NCelOv=     1 NCel=       1 NClECP=     1 NCelD=      1
         NCelK=      1 NCelE2=     1 NClLst=     1 CellRange=     0.0.
 One-electron integrals computed using PRISM.
 One-electron integral symmetry used in STVInt
 NBasis=    54 RedAO= T EigKep=  1.96D-04  NBF=    13     2     6     6     2    13     6     6
 NBsUse=    54 1.00D-06 EigRej= -1.00D+00 NBFU=    13     2     6     6     2    13     6     6
 Leave Link  302 at Fri Sep  6 10:28:21 2024, MaxMem=   104857600 cpu:               0.0 elap:               0.1
 (Enter /Users/asuyarger/Applications/G16/g16/l303.exe)
 DipDrv:  MaxL=1.
 Leave Link  303 at Fri Sep  6 10:28:21 2024, MaxMem=   104857600 cpu:               0.0 elap:               0.0
 (Enter /Users/asuyarger/Applications/G16/g16/l401.exe)
 ExpMin= 6.39D-02 ExpMax= 6.29D+03 ExpMxC= 9.49D+02 IAcc=3 IRadAn=         5 AccDes= 0.00D+00
 Harris functional with IExCor=  205 and IRadAn=       5 diagonalized for initial guess.
 HarFok:  IExCor=  205 AccDes= 0.00D+00 IRadAn=         5 IDoV= 1 UseB2=F ITyADJ=14
 ICtDFT=  3500011 ScaDFX=  1.000000  1.000000  1.000000  1.000000
 FoFCou: FMM=F IPFlag=           0 FMFlag=      100000 FMFlg1=           0
         NFxFlg=           0 DoJE=T BraDBF=F KetDBF=T FulRan=T
         wScrn=  0.000000 ICntrl=       500 IOpCl=  0 I1Cent=   200000004 NGrid=           0
         NMat0=    1 NMatS0=      1 NMatT0=    0 NMatD0=    1 NMtDS0=    0 NMtDT0=    0
 Petite list used in FoFCou.
 Harris En= -108.951964857055    
 JPrj=0 DoOrth=F DoCkMO=F.
 Initial guess orbital symmetries:
 Alpha Orbitals:
       Occupied  (SGG) (SGU) (SGG) (SGU) (PIU) (PIU) (SGG)
       Virtual   (PIG) (PIG) (SGG) (SGU) (PIU) (PIU) (SGG) (PIG)
                 (PIG) (SGU) (SGU) (SGG) (PIU) (PIU) (PIG) (PIG)
                 (DLTG) (DLTG) (SGU) (SGG) (PIU) (PIU) (SGU) (DLTU)
                 (DLTU) (PIG) (PIG) (SGG) (SGU) (PIU) (PIU) (PIG)
                 (PIG) (SGG) (SGG) (PIU) (PIU) (DLTG) (DLTG) (SGU)
                 (DLTU) (DLTU) (PIG) (PIG) (SGU) (SGG) (SGU)
 Beta  Orbitals:
       Occupied  (SGG) (SGU) (SGG) (SGU) (PIU) (PIU) (SGG)
       Virtual   (PIG) (PIG) (SGG) (SGU) (PIU) (PIU) (SGG) (PIG)
                 (PIG) (SGU) (SGU) (SGG) (PIU) (PIU) (PIG) (PIG)
                 (DLTG) (DLTG) (SGU) (SGG) (PIU) (PIU) (SGU) (DLTU)
                 (DLTU) (PIG) (PIG) (SGG) (SGU) (PIU) (PIU) (PIG)
                 (PIG) (SGG) (SGG) (PIU) (PIU) (DLTG) (DLTG) (SGU)
                 (DLTU) (DLTU) (PIG) (PIG) (SGU) (SGG) (SGU)
 The electronic state of the initial guess is 1-SGG.
 Initial guess <Sx>= 0.0000 <Sy>= 0.0000 <Sz>= 0.0000 <S**2>= 0.0000 S= 0.0000
 Leave Link  401 at Fri Sep  6 10:28:21 2024, MaxMem=   104857600 cpu:               0.1 elap:               0.1
 (Enter /Users/asuyarger/Applications/G16/g16/l502.exe)
 Keep R1 and R2 ints in memory in symmetry-blocked form, NReq=1941013.
 FoFCou: FMM=F IPFlag=           0 FMFlag=           0 FMFlg1=           0
         NFxFlg=           0 DoJE=F BraDBF=F KetDBF=F FulRan=T
         wScrn=  0.000000 ICntrl=       600 IOpCl=  0 I1Cent=           0 NGrid=           0
         NMat0=    1 NMatS0=   1485 NMatT0=    0 NMatD0=    1 NMtDS0=    0 NMtDT0=    0
 Petite list used in FoFCou.
 UHF open shell SCF:
 Using DIIS extrapolation, IDIIS=  1040.
 NGot=   104857600 LenX=   104547190 LenY=   104543385
 Requested convergence on RMS density matrix=1.00D-08 within 128 cycles.
 Requested convergence on MAX density matrix=1.00D-06.
 Requested convergence on             energy=1.00D-06.
 No special actions if energy rises.

 Cycle   1  Pass 1  IDiag  1:
 E= -108.944698040990    
 DIIS: error= 7.84D-02 at cycle   1 NSaved=   1.
 NSaved= 1 IEnMin= 1 EnMin= -108.944698040990     IErMin= 1 ErrMin= 7.84D-02
 ErrMax= 7.84D-02  0.00D+00 EMaxC= 1.00D-01 BMatC= 6.32D-01 BMatP= 6.32D-01
 IDIUse=3 WtCom= 2.16D-01 WtEn= 7.84D-01
 Coeff-Com:  0.100D+01
 Coeff-En:   0.100D+01
 Coeff:      0.100D+01
 Gap=     0.746 Goal=   None    Shift=    0.000
 Gap=     0.746 Goal=   None    Shift=    0.000
 GapD=    0.746 DampG=2.000 DampE=0.500 DampFc=1.0000 IDamp=-1.
 RMSDP=2.83D-03 MaxDP=3.68D-02              OVMax= 4.41D-02

 Cycle   2  Pass 1  IDiag  1:
 E= -108.976817296674     Delta-E=       -0.032119255685 Rises=F Damp=F
 DIIS: error= 6.58D-03 at cycle   2 NSaved=   2.
 NSaved= 2 IEnMin= 2 EnMin= -108.976817296674     IErMin= 2 ErrMin= 6.58D-03
 ErrMax= 6.58D-03  0.00D+00 EMaxC= 1.00D-01 BMatC= 6.31D-03 BMatP= 6.32D-01
 IDIUse=3 WtCom= 9.34D-01 WtEn= 6.58D-02
 Coeff-Com: -0.316D-01 0.103D+01
 Coeff-En:   0.000D+00 0.100D+01
 Coeff:     -0.295D-01 0.103D+01
 Gap=     0.757 Goal=   None    Shift=    0.000
 Gap=     0.757 Goal=   None    Shift=    0.000
 RMSDP=1.02D-03 MaxDP=1.47D-02 DE=-3.21D-02 OVMax= 1.42D-02

 Cycle   3  Pass 1  IDiag  1:
 E= -108.977964477278     Delta-E=       -0.001147180604 Rises=F Damp=F
 DIIS: error= 1.71D-03 at cycle   3 NSaved=   3.
 NSaved= 3 IEnMin= 3 EnMin= -108.977964477278     IErMin= 3 ErrMin= 1.71D-03
 ErrMax= 1.71D-03  0.00D+00 EMaxC= 1.00D-01 BMatC= 4.02D-04 BMatP= 6.31D-03
 IDIUse=3 WtCom= 9.83D-01 WtEn= 1.71D-02
 Coeff-Com: -0.126D-01 0.154D+00 0.859D+00
 Coeff-En:   0.000D+00 0.000D+00 0.100D+01
 Coeff:     -0.123D-01 0.151D+00 0.861D+00
 Gap=     0.749 Goal=   None    Shift=    0.000
 Gap=     0.749 Goal=   None    Shift=    0.000
 RMSDP=3.50D-04 MaxDP=4.84D-03 DE=-1.15D-03 OVMax= 2.98D-03

 Cycle   4  Pass 1  IDiag  1:
 E= -108.978056579202     Delta-E=       -0.000092101924 Rises=F Damp=F
 DIIS: error= 4.41D-04 at cycle   4 NSaved=   4.
 NSaved= 4 IEnMin= 4 EnMin= -108.978056579202     IErMin= 4 ErrMin= 4.41D-04
 ErrMax= 4.41D-04  0.00D+00 EMaxC= 1.00D-01 BMatC= 1.98D-05 BMatP= 4.02D-04
 IDIUse=3 WtCom= 9.96D-01 WtEn= 4.41D-03
 Coeff-Com:  0.355D-02-0.725D-01-0.211D+00 0.128D+01
 Coeff-En:   0.000D+00 0.000D+00 0.000D+00 0.100D+01
 Coeff:      0.354D-02-0.722D-01-0.210D+00 0.128D+01
 Gap=     0.749 Goal=   None    Shift=    0.000
 Gap=     0.749 Goal=   None    Shift=    0.000
 RMSDP=1.99D-04 MaxDP=2.83D-03 DE=-9.21D-05 OVMax= 1.55D-03

 Cycle   5  Pass 1  IDiag  1:
 E= -108.978065067863     Delta-E=       -0.000008488662 Rises=F Damp=F
 DIIS: error= 7.17D-05 at cycle   5 NSaved=   5.
 NSaved= 5 IEnMin= 5 EnMin= -108.978065067863     IErMin= 5 ErrMin= 7.17D-05
 ErrMax= 7.17D-05  0.00D+00 EMaxC= 1.00D-01 BMatC= 1.90D-07 BMatP= 1.98D-05
 IDIUse=1 WtCom= 1.00D+00 WtEn= 0.00D+00
 Coeff-Com: -0.153D-04 0.199D-02 0.894D-02-0.109D+00 0.110D+01
 Coeff:     -0.153D-04 0.199D-02 0.894D-02-0.109D+00 0.110D+01
 Gap=     0.749 Goal=   None    Shift=    0.000
 Gap=     0.749 Goal=   None    Shift=    0.000
 RMSDP=1.35D-05 MaxDP=1.89D-04 DE=-8.49D-06 OVMax= 1.80D-04

 Cycle   6  Pass 1  IDiag  1:
 E= -108.978065165762     Delta-E=       -0.000000097899 Rises=F Damp=F
 DIIS: error= 1.16D-05 at cycle   6 NSaved=   6.
 NSaved= 6 IEnMin= 6 EnMin= -108.978065165762     IErMin= 6 ErrMin= 1.16D-05
 ErrMax= 1.16D-05  0.00D+00 EMaxC= 1.00D-01 BMatC= 5.59D-09 BMatP= 1.90D-07
 IDIUse=1 WtCom= 1.00D+00 WtEn= 0.00D+00
 Coeff-Com: -0.427D-04 0.867D-03 0.237D-02-0.108D-01-0.161D+00 0.117D+01
 Coeff:     -0.427D-04 0.867D-03 0.237D-02-0.108D-01-0.161D+00 0.117D+01
 Gap=     0.749 Goal=   None    Shift=    0.000
 Gap=     0.749 Goal=   None    Shift=    0.000
 RMSDP=1.26D-06 MaxDP=1.69D-05 DE=-9.79D-08 OVMax= 3.23D-05

 Cycle   7  Pass 1  IDiag  1:
 E= -108.978065168506     Delta-E=       -0.000000002744 Rises=F Damp=F
 DIIS: error= 7.95D-07 at cycle   7 NSaved=   7.
 NSaved= 7 IEnMin= 7 EnMin= -108.978065168506     IErMin= 7 ErrMin= 7.95D-07
 ErrMax= 7.95D-07  0.00D+00 EMaxC= 1.00D-01 BMatC= 6.31D-11 BMatP= 5.59D-09
 IDIUse=1 WtCom= 1.00D+00 WtEn= 0.00D+00
 Coeff-Com:  0.604D-05-0.169D-03-0.650D-03 0.420D-02 0.521D-02-0.172D+00
 Coeff-Com:  0.116D+01
 Coeff:      0.604D-05-0.169D-03-0.650D-03 0.420D-02 0.521D-02-0.172D+00
 Coeff:      0.116D+01
 Gap=     0.749 Goal=   None    Shift=    0.000
 Gap=     0.749 Goal=   None    Shift=    0.000
 RMSDP=4.34D-07 MaxDP=6.10D-06 DE=-2.74D-09 OVMax= 2.41D-06

 Cycle   8  Pass 1  IDiag  1:
 E= -108.978065168532     Delta-E=       -0.000000000026 Rises=F Damp=F
 DIIS: error= 1.30D-07 at cycle   8 NSaved=   8.
 NSaved= 8 IEnMin= 8 EnMin= -108.978065168532     IErMin= 8 ErrMin= 1.30D-07
 ErrMax= 1.30D-07  0.00D+00 EMaxC= 1.00D-01 BMatC= 1.11D-12 BMatP= 6.31D-11
 IDIUse=1 WtCom= 1.00D+00 WtEn= 0.00D+00
 Coeff-Com: -0.102D-05 0.350D-04 0.163D-03-0.107D-02 0.158D-03 0.373D-01
 Coeff-Com: -0.348D+00 0.131D+01
 Coeff:     -0.102D-05 0.350D-04 0.163D-03-0.107D-02 0.158D-03 0.373D-01
 Coeff:     -0.348D+00 0.131D+01
 Gap=     0.749 Goal=   None    Shift=    0.000
 Gap=     0.749 Goal=   None    Shift=    0.000
 RMSDP=7.27D-08 MaxDP=9.84D-07 DE=-2.59D-11 OVMax= 4.55D-07

 Cycle   9  Pass 1  IDiag  1:
 E= -108.978065168532     Delta-E=       -0.000000000000 Rises=F Damp=F
 DIIS: error= 7.34D-09 at cycle   9 NSaved=   9.
 NSaved= 9 IEnMin= 9 EnMin= -108.978065168532     IErMin= 9 ErrMin= 7.34D-09
 ErrMax= 7.34D-09  0.00D+00 EMaxC= 1.00D-01 BMatC= 5.55D-15 BMatP= 1.11D-12
 IDIUse=1 WtCom= 1.00D+00 WtEn= 0.00D+00
 Coeff-Com:  0.104D-06-0.351D-05-0.168D-04 0.110D-03-0.857D-04-0.326D-02
 Coeff-Com:  0.358D-01-0.187D+00 0.115D+01
 Coeff:      0.104D-06-0.351D-05-0.168D-04 0.110D-03-0.857D-04-0.326D-02
 Coeff:      0.358D-01-0.187D+00 0.115D+01
 Gap=     0.749 Goal=   None    Shift=    0.000
 Gap=     0.749 Goal=   None    Shift=    0.000
 RMSDP=2.76D-09 MaxDP=3.52D-08 DE=-3.13D-13 OVMax= 3.69D-08

 SCF Done:  E(UHF) =  -108.978065169     A.U. after    9 cycles
            NFock=  9  Conv=0.28D-08     -V/T= 2.0016
 <Sx>= 0.0000 <Sy>= 0.0000 <Sz>= 0.0000 <S**2>=-0.0000 S=-0.0000
 <L.S>= 0.000000000000E+00
 KE= 1.087999678908D+02 PE=-3.032526364854D+02 EE= 6.172947216676D+01
 Annihilation of the first spin contaminant:
 S**2 before annihilation    -0.0000,   after    -0.0000
 Leave Link  502 at Fri Sep  6 10:28:21 2024, MaxMem=   104857600 cpu:               0.2 elap:               0.2
 (Enter /Users/asuyarger/Applications/G16/g16/l601.exe)
 Copying SCF densities to generalized density rwf, IOpCl= 1 IROHF=0.

 **********************************************************************

            Population analysis using the SCF density.

 **********************************************************************

 Orbital symmetries:
 Alpha Orbitals:
       Occupied  (SGG) (SGU) (SGG) (SGU) (SGG) (PIU) (PIU)
       Virtual   (PIG) (PIG) (SGU) (SGG) (PIU) (PIU) (SGG) (PIG)
                 (PIG) (SGU) (SGU) (SGG) (PIU) (PIU) (PIG) (PIG)
                 (DLTG) (DLTG) (SGG) (SGU) (PIU) (PIU) (SGU) (DLTU)
                 (DLTU) (PIG) (PIG) (SGG) (SGU) (PIU) (PIU) (PIG)
                 (PIG) (SGG) (PIU) (PIU) (SGG) (DLTG) (DLTG) (SGU)
                 (DLTU) (DLTU) (PIG) (PIG) (SGU) (SGG) (SGU)
 Beta  Orbitals:
       Occupied  (SGG) (SGU) (SGG) (SGU) (SGG) (PIU) (PIU)
       Virtual   (PIG) (PIG) (SGU) (SGG) (PIU) (PIU) (SGG) (PIG)
                 (PIG) (SGU) (SGU) (SGG) (PIU) (PIU) (PIG) (PIG)
                 (DLTG) (DLTG) (SGG) (SGU) (PIU) (PIU) (SGU) (DLTU)
                 (DLTU) (PIG) (PIG) (SGG) (SGU) (PIU) (PIU) (PIG)
                 (PIG) (SGG) (PIU) (PIU) (SGG) (DLTG) (DLTG) (SGU)
                 (DLTU) (DLTU) (PIG) (PIG) (SGU) (SGG) (SGU)
 The electronic state is 1-SGG.
 Alpha  occ. eigenvalues --  -15.68471 -15.68104  -1.48018  -0.77858  -0.63730
 Alpha  occ. eigenvalues --   -0.61752  -0.61752
 Alpha virt. eigenvalues --    0.13129   0.13129   0.13854   0.14310   0.16510
 Alpha virt. eigenvalues --    0.16510   0.22088   0.27131   0.27131   0.33156
 Alpha virt. eigenvalues --    0.65507   0.83414   0.89107   0.89107   1.02042
 Alpha virt. eigenvalues --    1.02042   1.02157   1.02157   1.08024   1.12031
 Alpha virt. eigenvalues --    1.33750   1.33750   1.41156   1.48431   1.48431
 Alpha virt. eigenvalues --    2.01039   2.01039   2.08808   2.31306   4.12875
 Alpha virt. eigenvalues --    4.12875   4.40529   4.40529   4.44257   4.76575
 Alpha virt. eigenvalues --    4.76575   4.84424   5.02200   5.02200   5.10945
 Alpha virt. eigenvalues --    5.19582   5.19582   5.70447   5.70447   6.72262
 Alpha virt. eigenvalues --   36.50459  37.42918
  Beta  occ. eigenvalues --  -15.68471 -15.68104  -1.48018  -0.77858  -0.63730
  Beta  occ. eigenvalues --   -0.61752  -0.61752
  Beta virt. eigenvalues --    0.13129   0.13129   0.13854   0.14310   0.16510
  Beta virt. eigenvalues --    0.16510   0.22088   0.27131   0.27131   0.33156
  Beta virt. eigenvalues --    0.65507   0.83414   0.89107   0.89107   1.02042
  Beta virt. eigenvalues --    1.02042   1.02157   1.02157   1.08024   1.12031
  Beta virt. eigenvalues --    1.33750   1.33750   1.41156   1.48431   1.48431
  Beta virt. eigenvalues --    2.01039   2.01039   2.08808   2.31306   4.12875
  Beta virt. eigenvalues --    4.12875   4.40529   4.40529   4.44257   4.76575
  Beta virt. eigenvalues --    4.76575   4.84424   5.02200   5.02200   5.10945
  Beta virt. eigenvalues --    5.19582   5.19582   5.70447   5.70447   6.72262
  Beta virt. eigenvalues --   36.50459  37.42918
     Alpha Molecular Orbital Coefficients:
                           1         2         3         4         5
                       (SGG)--O  (SGU)--O  (SGG)--O  (SGU)--O  (SGG)--O
     Eigenvalues --   -15.68471 -15.68104  -1.48018  -0.77858  -0.63730
   1 1   N  1S          0.39425   0.39446  -0.08733  -0.07975  -0.02835
   2        2S          0.33101   0.33141  -0.14362  -0.13515  -0.04773
   3        2PX         0.00000   0.00000   0.00000   0.00000   0.00000
   4        2PY         0.00000   0.00000   0.00000   0.00000   0.00000
   5        2PZ        -0.00163  -0.00121  -0.10732   0.09868   0.21281
   6        3S          0.00364   0.00258   0.38534   0.39235   0.13219
   7        3PX         0.00000   0.00000   0.00000   0.00000   0.00000
   8        3PY         0.00000   0.00000   0.00000   0.00000   0.00000
   9        3PZ         0.00001   0.00109  -0.14336   0.14509   0.31068
  10        4S         -0.00030  -0.00305   0.16845   0.47002   0.27651
  11        4PX         0.00000   0.00000   0.00000   0.00000   0.00000
  12        4PY         0.00000   0.00000   0.00000   0.00000   0.00000
  13        4PZ        -0.00003   0.00112  -0.03137   0.06048   0.17610
  14        5S          0.00013   0.00497  -0.00739  -0.31070   0.03369
  15        5PX         0.00000   0.00000   0.00000   0.00000   0.00000
  16        5PY         0.00000   0.00000   0.00000   0.00000   0.00000
  17        5PZ        -0.00002  -0.00128   0.00701   0.08960   0.00197
  18        6D 0        0.00053   0.00024   0.02023  -0.00314  -0.01844
  19        6D+1        0.00000   0.00000   0.00000   0.00000   0.00000
  20        6D-1        0.00000   0.00000   0.00000   0.00000   0.00000
  21        6D+2       -0.00000   0.00000   0.00000   0.00000   0.00000
  22        6D-2        0.00000   0.00000   0.00000   0.00000   0.00000
  23        7D 0       -0.00009  -0.00031   0.01522  -0.00296  -0.00968
  24        7D+1        0.00000   0.00000   0.00000   0.00000   0.00000
  25        7D-1        0.00000   0.00000   0.00000   0.00000   0.00000
  26        7D+2       -0.00000  -0.00000  -0.00000   0.00000   0.00000
  27        7D-2        0.00000   0.00000   0.00000   0.00000   0.00000
  28 2   N  1S          0.39425  -0.39446  -0.08733   0.07975  -0.02835
  29        2S          0.33101  -0.33141  -0.14362   0.13515  -0.04773
  30        2PX         0.00000   0.00000   0.00000   0.00000   0.00000
  31        2PY         0.00000   0.00000   0.00000   0.00000   0.00000
  32        2PZ         0.00163  -0.00121   0.10732   0.09868  -0.21281
  33        3S          0.00364  -0.00258   0.38534  -0.39235   0.13219
  34        3PX         0.00000   0.00000   0.00000   0.00000   0.00000
  35        3PY         0.00000   0.00000   0.00000   0.00000   0.00000
  36        3PZ        -0.00001   0.00109   0.14336   0.14509  -0.31068
  37        4S         -0.00030   0.00305   0.16845  -0.47002   0.27651
  38        4PX         0.00000   0.00000   0.00000   0.00000   0.00000
  39        4PY         0.00000   0.00000   0.00000   0.00000   0.00000
  40        4PZ         0.00003   0.00112   0.03137   0.06048  -0.17610
  41        5S          0.00013  -0.00497  -0.00739   0.31070   0.03369
  42        5PX         0.00000   0.00000   0.00000   0.00000   0.00000
  43        5PY         0.00000   0.00000   0.00000   0.00000   0.00000
  44        5PZ         0.00002  -0.00128  -0.00701   0.08960  -0.00197
  45        6D 0        0.00053  -0.00024   0.02023   0.00314  -0.01844
  46        6D+1        0.00000   0.00000   0.00000   0.00000   0.00000
  47        6D-1        0.00000   0.00000   0.00000   0.00000   0.00000
  48        6D+2       -0.00000  -0.00000   0.00000  -0.00000   0.00000
  49        6D-2        0.00000   0.00000   0.00000   0.00000   0.00000
  50        7D 0       -0.00009   0.00031   0.01522   0.00296  -0.00968
  51        7D+1        0.00000   0.00000   0.00000   0.00000   0.00000
  52        7D-1        0.00000   0.00000   0.00000   0.00000   0.00000
  53        7D+2       -0.00000   0.00000  -0.00000  -0.00000   0.00000
  54        7D-2        0.00000   0.00000   0.00000   0.00000   0.00000
                           6         7         8         9        10
                       (PIU)--O  (PIU)--O  (PIG)--V  (PIG)--V  (SGU)--V
     Eigenvalues --    -0.61752  -0.61752   0.13129   0.13129   0.13854
   1 1   N  1S          0.00000   0.00000   0.00000   0.00000  -0.01619
   2        2S          0.00000   0.00000   0.00000   0.00000  -0.02776
   3        2PX         0.19035   0.00000   0.00000   0.14176   0.00000
   4        2PY         0.00000   0.19035   0.14176   0.00000   0.00000
   5        2PZ         0.00000   0.00000   0.00000   0.00000   0.01127
   6        3S          0.00000   0.00000   0.00000   0.00000   0.10265
   7        3PX         0.30632   0.00000   0.00000   0.24403   0.00000
   8        3PY         0.00000   0.30632   0.24403   0.00000   0.00000
   9        3PZ         0.00000   0.00000   0.00000   0.00000   0.07063
  10        4S          0.00000   0.00000   0.00000   0.00000  -1.18521
  11        4PX         0.21558   0.00000   0.00000   0.25157   0.00000
  12        4PY         0.00000   0.21558   0.25157   0.00000   0.00000
  13        4PZ         0.00000   0.00000   0.00000   0.00000   0.82009
  14        5S          0.00000   0.00000   0.00000   0.00000  16.42624
  15        5PX         0.00930   0.00000   0.00000   1.22039   0.00000
  16        5PY         0.00000   0.00930   1.22039   0.00000   0.00000
  17        5PZ         0.00000   0.00000   0.00000   0.00000  -5.16106
  18        6D 0        0.00000   0.00000   0.00000   0.00000   0.00067
  19        6D+1       -0.02042   0.00000   0.00000   0.00710   0.00000
  20        6D-1        0.00000  -0.02042   0.00710   0.00000   0.00000
  21        6D+2        0.00000   0.00000   0.00000   0.00000  -0.00000
  22        6D-2        0.00000   0.00000   0.00000   0.00000   0.00000
  23        7D 0        0.00000   0.00000   0.00000   0.00000  -0.09821
  24        7D+1       -0.04152   0.00000   0.00000   0.03251   0.00000
  25        7D-1        0.00000  -0.04152   0.03251   0.00000   0.00000
  26        7D+2        0.00000   0.00000   0.00000   0.00000   0.00000
  27        7D-2        0.00000   0.00000   0.00000   0.00000   0.00000
  28 2   N  1S          0.00000   0.00000   0.00000   0.00000   0.01619
  29        2S          0.00000   0.00000   0.00000   0.00000   0.02776
  30        2PX         0.19035   0.00000   0.00000  -0.14176   0.00000
  31        2PY         0.00000   0.19035  -0.14176   0.00000   0.00000
  32        2PZ         0.00000   0.00000   0.00000   0.00000   0.01127
  33        3S          0.00000   0.00000   0.00000   0.00000  -0.10265
  34        3PX         0.30632   0.00000   0.00000  -0.24403   0.00000
  35        3PY         0.00000   0.30632  -0.24403   0.00000   0.00000
  36        3PZ         0.00000   0.00000   0.00000   0.00000   0.07063
  37        4S          0.00000   0.00000   0.00000   0.00000   1.18521
  38        4PX         0.21558   0.00000   0.00000  -0.25157   0.00000
  39        4PY         0.00000   0.21558  -0.25157   0.00000   0.00000
  40        4PZ         0.00000   0.00000   0.00000   0.00000   0.82009
  41        5S          0.00000   0.00000   0.00000   0.00000 -16.42624
  42        5PX         0.00930   0.00000   0.00000  -1.22039   0.00000
  43        5PY         0.00000   0.00930  -1.22039   0.00000   0.00000
  44        5PZ         0.00000   0.00000   0.00000   0.00000  -5.16106
  45        6D 0        0.00000   0.00000   0.00000   0.00000  -0.00067
  46        6D+1        0.02042   0.00000   0.00000   0.00710   0.00000
  47        6D-1        0.00000   0.02042   0.00710   0.00000   0.00000
  48        6D+2        0.00000   0.00000   0.00000   0.00000   0.00000
  49        6D-2        0.00000   0.00000   0.00000   0.00000   0.00000
  50        7D 0        0.00000   0.00000   0.00000   0.00000   0.09821
  51        7D+1        0.04152   0.00000   0.00000   0.03251   0.00000
  52        7D-1        0.00000   0.04152   0.03251   0.00000   0.00000
  53        7D+2        0.00000   0.00000   0.00000   0.00000  -0.00000
  54        7D-2        0.00000   0.00000   0.00000   0.00000   0.00000
                          11        12        13        14        15
                       (SGG)--V  (PIU)--V  (PIU)--V  (SGG)--V  (PIG)--V
     Eigenvalues --     0.14310   0.16510   0.16510   0.22088   0.27131
   1 1   N  1S          0.01923   0.00000   0.00000  -0.01327   0.00000
   2        2S          0.03131   0.00000   0.00000  -0.02016   0.00000
   3        2PX         0.00000   0.00000  -0.06132   0.00000  -0.15766
   4        2PY         0.00000  -0.06132   0.00000   0.00000   0.00000
   5        2PZ        -0.05416   0.00000   0.00000  -0.01105   0.00000
   6        3S         -0.07853   0.00000   0.00000   0.00396   0.00000
   7        3PX         0.00000   0.00000  -0.04225   0.00000  -0.20545
   8        3PY         0.00000  -0.04225   0.00000   0.00000   0.00000
   9        3PZ        -0.03212   0.00000   0.00000   0.01407   0.00000
  10        4S         -0.58291   0.00000   0.00000   0.54835   0.00000
  11        4PX         0.00000   0.00000  -0.29934   0.00000  -0.84101
  12        4PY         0.00000  -0.29934   0.00000   0.00000   0.00000
  13        4PZ        -0.29385   0.00000   0.00000  -0.07634   0.00000
  14        5S          0.91078   0.00000   0.00000  -0.21232   0.00000
  15        5PX         0.00000   0.00000   0.66309   0.00000   2.03307
  16        5PY         0.00000   0.66309   0.00000   0.00000   0.00000
  17        5PZ         0.69333   0.00000   0.00000   1.50880   0.00000
  18        6D 0       -0.00140   0.00000   0.00000   0.01040   0.00000
  19        6D+1        0.00000   0.00000   0.00841   0.00000  -0.00977
  20        6D-1        0.00000   0.00841   0.00000   0.00000   0.00000
  21        6D+2        0.00000   0.00000   0.00000  -0.00000   0.00000
  22        6D-2        0.00000   0.00000   0.00000   0.00000   0.00000
  23        7D 0        0.02752   0.00000   0.00000   0.01937   0.00000
  24        7D+1        0.00000   0.00000   0.01040   0.00000   0.03942
  25        7D-1        0.00000   0.01040   0.00000   0.00000   0.00000
  26        7D+2        0.00000   0.00000   0.00000  -0.00000   0.00000
  27        7D-2        0.00000   0.00000   0.00000   0.00000   0.00000
  28 2   N  1S          0.01923   0.00000   0.00000  -0.01327   0.00000
  29        2S          0.03131   0.00000   0.00000  -0.02016   0.00000
  30        2PX         0.00000   0.00000  -0.06132   0.00000   0.15766
  31        2PY         0.00000  -0.06132   0.00000   0.00000   0.00000
  32        2PZ         0.05416   0.00000   0.00000   0.01105   0.00000
  33        3S         -0.07853   0.00000   0.00000   0.00396   0.00000
  34        3PX         0.00000   0.00000  -0.04225   0.00000   0.20545
  35        3PY         0.00000  -0.04225   0.00000   0.00000   0.00000
  36        3PZ         0.03212   0.00000   0.00000  -0.01407   0.00000
  37        4S         -0.58291   0.00000   0.00000   0.54835   0.00000
  38        4PX         0.00000   0.00000  -0.29934   0.00000   0.84101
  39        4PY         0.00000  -0.29934   0.00000   0.00000   0.00000
  40        4PZ         0.29385   0.00000   0.00000   0.07634   0.00000
  41        5S          0.91078   0.00000   0.00000  -0.21232   0.00000
  42        5PX         0.00000   0.00000   0.66309   0.00000  -2.03307
  43        5PY         0.00000   0.66309   0.00000   0.00000   0.00000
  44        5PZ        -0.69333   0.00000   0.00000  -1.50880   0.00000
  45        6D 0       -0.00140   0.00000   0.00000   0.01040   0.00000
  46        6D+1        0.00000   0.00000  -0.00841   0.00000  -0.00977
  47        6D-1        0.00000  -0.00841   0.00000   0.00000   0.00000
  48        6D+2        0.00000   0.00000   0.00000  -0.00000   0.00000
  49        6D-2        0.00000   0.00000   0.00000   0.00000   0.00000
  50        7D 0        0.02752   0.00000   0.00000   0.01937   0.00000
  51        7D+1        0.00000   0.00000  -0.01040   0.00000   0.03942
  52        7D-1        0.00000  -0.01040   0.00000   0.00000   0.00000
  53        7D+2        0.00000   0.00000   0.00000  -0.00000   0.00000
  54        7D-2        0.00000   0.00000   0.00000   0.00000   0.00000
                          16        17        18        19        20
                       (PIG)--V  (SGU)--V  (SGU)--V  (SGG)--V  (PIU)--V
     Eigenvalues --     0.27131   0.33156   0.65507   0.83414   0.89107
   1 1   N  1S          0.00000   0.01645  -0.04111  -0.00271   0.00000
   2        2S          0.00000   0.02635  -0.07515  -0.01234   0.00000
   3        2PX         0.00000   0.00000   0.00000   0.00000  -0.13318
   4        2PY        -0.15766   0.00000   0.00000   0.00000   0.00000
   5        2PZ         0.00000  -0.03533  -0.03672  -0.10334   0.00000
   6        3S          0.00000  -0.01564   0.16054   0.28967   0.00000
   7        3PX         0.00000   0.00000   0.00000   0.00000  -0.56859
   8        3PY        -0.20545   0.00000   0.00000   0.00000   0.00000
   9        3PZ         0.00000   0.03620  -0.29004  -0.47022   0.00000
  10        4S          0.00000  -0.95074   7.99061  -0.00408   0.00000
  11        4PX         0.00000   0.00000   0.00000   0.00000   0.97473
  12        4PY        -0.84101   0.00000   0.00000   0.00000   0.00000
  13        4PZ         0.00000  -0.28697  -4.83187   1.35416   0.00000
  14        5S          0.00000  39.70400  -3.94206  -0.13942   0.00000
  15        5PX         0.00000   0.00000   0.00000   0.00000  -0.41045
  16        5PY         2.03307   0.00000   0.00000   0.00000   0.00000
  17        5PZ         0.00000 -10.39500   1.53735  -0.95493   0.00000
  18        6D 0        0.00000  -0.00482  -0.03077   0.03683   0.00000
  19        6D+1        0.00000   0.00000   0.00000   0.00000   0.01720
  20        6D-1       -0.00977   0.00000   0.00000   0.00000   0.00000
  21        6D+2        0.00000  -0.00000   0.00000  -0.00000   0.00000
  22        6D-2        0.00000   0.00000   0.00000   0.00000   0.00000
  23        7D 0        0.00000  -0.01684   0.33913  -0.01128   0.00000
  24        7D+1        0.00000   0.00000   0.00000   0.00000   0.16007
  25        7D-1        0.03942   0.00000   0.00000   0.00000   0.00000
  26        7D+2        0.00000   0.00000  -0.00000  -0.00000   0.00000
  27        7D-2        0.00000   0.00000   0.00000   0.00000   0.00000
  28 2   N  1S          0.00000  -0.01645   0.04111  -0.00271   0.00000
  29        2S          0.00000  -0.02635   0.07515  -0.01234   0.00000
  30        2PX         0.00000   0.00000   0.00000   0.00000  -0.13318
  31        2PY         0.15766   0.00000   0.00000   0.00000   0.00000
  32        2PZ         0.00000  -0.03533  -0.03672   0.10334   0.00000
  33        3S          0.00000   0.01564  -0.16054   0.28967   0.00000
  34        3PX         0.00000   0.00000   0.00000   0.00000  -0.56859
  35        3PY         0.20545   0.00000   0.00000   0.00000   0.00000
  36        3PZ         0.00000   0.03620  -0.29004   0.47022   0.00000
  37        4S          0.00000   0.95074  -7.99061  -0.00408   0.00000
  38        4PX         0.00000   0.00000   0.00000   0.00000   0.97473
  39        4PY         0.84101   0.00000   0.00000   0.00000   0.00000
  40        4PZ         0.00000  -0.28697  -4.83187  -1.35416   0.00000
  41        5S          0.00000 -39.70400   3.94206  -0.13942   0.00000
  42        5PX         0.00000   0.00000   0.00000   0.00000  -0.41045
  43        5PY        -2.03307   0.00000   0.00000   0.00000   0.00000
  44        5PZ         0.00000 -10.39500   1.53735   0.95493   0.00000
  45        6D 0        0.00000   0.00482   0.03077   0.03683   0.00000
  46        6D+1        0.00000   0.00000   0.00000   0.00000  -0.01720
  47        6D-1       -0.00977   0.00000   0.00000   0.00000   0.00000
  48        6D+2        0.00000   0.00000  -0.00000  -0.00000   0.00000
  49        6D-2        0.00000   0.00000   0.00000   0.00000   0.00000
  50        7D 0        0.00000   0.01684  -0.33913  -0.01128   0.00000
  51        7D+1        0.00000   0.00000   0.00000   0.00000  -0.16007
  52        7D-1        0.03942   0.00000   0.00000   0.00000   0.00000
  53        7D+2        0.00000  -0.00000   0.00000  -0.00000   0.00000
  54        7D-2        0.00000   0.00000   0.00000   0.00000   0.00000
                          21        22        23        24        25
                       (PIU)--V  (PIG)--V  (PIG)--V  (DLTG)--  (DLTG)--
     Eigenvalues --     0.89107   1.02042   1.02042   1.02157   1.02157
   1 1   N  1S          0.00000   0.00000   0.00000   0.00000   0.00000
   2        2S          0.00000   0.00000   0.00000   0.00000   0.00000
   3        2PX         0.00000  -0.18556   0.00000   0.00000   0.00000
   4        2PY        -0.13318   0.00000  -0.18556   0.00000   0.00000
   5        2PZ         0.00000   0.00000   0.00000   0.00000  -0.00000
   6        3S          0.00000   0.00000   0.00000   0.00000  -0.00000
   7        3PX         0.00000  -0.62560   0.00000   0.00000   0.00000
   8        3PY        -0.56859   0.00000  -0.62560   0.00000   0.00000
   9        3PZ         0.00000   0.00000   0.00000   0.00000  -0.00000
  10        4S          0.00000   0.00000   0.00000   0.00000   0.00000
  11        4PX         0.00000   1.90853   0.00000   0.00000   0.00000
  12        4PY         0.97473   0.00000   1.90853   0.00000   0.00000
  13        4PZ         0.00000   0.00000   0.00000   0.00000   0.00000
  14        5S          0.00000   0.00000   0.00000   0.00000  -0.00000
  15        5PX         0.00000  -1.16036   0.00000   0.00000   0.00000
  16        5PY        -0.41045   0.00000  -1.16036   0.00000   0.00000
  17        5PZ         0.00000   0.00000   0.00000   0.00000  -0.00000
  18        6D 0        0.00000   0.00000   0.00000   0.00000   0.00000
  19        6D+1        0.00000   0.01718   0.00000   0.00000   0.00000
  20        6D-1        0.01720   0.00000   0.01718   0.00000   0.00000
  21        6D+2        0.00000   0.00000   0.00000   0.00000   0.00424
  22        6D-2        0.00000   0.00000   0.00000   0.00424   0.00000
  23        7D 0        0.00000   0.00000   0.00000   0.00000  -0.00000
  24        7D+1        0.00000  -0.25943   0.00000   0.00000   0.00000
  25        7D-1        0.16007   0.00000  -0.25943   0.00000   0.00000
  26        7D+2        0.00000   0.00000   0.00000   0.00000   0.60058
  27        7D-2        0.00000   0.00000   0.00000   0.60058   0.00000
  28 2   N  1S          0.00000   0.00000   0.00000   0.00000   0.00000
  29        2S          0.00000   0.00000   0.00000   0.00000   0.00000
  30        2PX         0.00000   0.18556   0.00000   0.00000   0.00000
  31        2PY        -0.13318   0.00000   0.18556   0.00000   0.00000
  32        2PZ         0.00000   0.00000   0.00000   0.00000   0.00000
  33        3S          0.00000   0.00000   0.00000   0.00000  -0.00000
  34        3PX         0.00000   0.62560   0.00000   0.00000   0.00000
  35        3PY        -0.56859   0.00000   0.62560   0.00000   0.00000
  36        3PZ         0.00000   0.00000   0.00000   0.00000   0.00000
  37        4S          0.00000   0.00000   0.00000   0.00000   0.00000
  38        4PX         0.00000  -1.90853   0.00000   0.00000   0.00000
  39        4PY         0.97473   0.00000  -1.90853   0.00000   0.00000
  40        4PZ         0.00000   0.00000   0.00000   0.00000  -0.00000
  41        5S          0.00000   0.00000   0.00000   0.00000  -0.00000
  42        5PX         0.00000   1.16036   0.00000   0.00000   0.00000
  43        5PY        -0.41045   0.00000   1.16036   0.00000   0.00000
  44        5PZ         0.00000   0.00000   0.00000   0.00000   0.00000
  45        6D 0        0.00000   0.00000   0.00000   0.00000   0.00000
  46        6D+1        0.00000   0.01718   0.00000   0.00000   0.00000
  47        6D-1       -0.01720   0.00000   0.01718   0.00000   0.00000
  48        6D+2        0.00000   0.00000   0.00000   0.00000   0.00424
  49        6D-2        0.00000   0.00000   0.00000   0.00424   0.00000
  50        7D 0        0.00000   0.00000   0.00000   0.00000  -0.00000
  51        7D+1        0.00000  -0.25943   0.00000   0.00000   0.00000
  52        7D-1       -0.16007   0.00000  -0.25943   0.00000   0.00000
  53        7D+2        0.00000   0.00000   0.00000   0.00000   0.60058
  54        7D-2        0.00000   0.00000   0.00000   0.60058   0.00000
                          26        27        28        29        30
                       (SGG)--V  (SGU)--V  (PIU)--V  (PIU)--V  (SGU)--V
     Eigenvalues --     1.08024   1.12031   1.33750   1.33750   1.41156
   1 1   N  1S          0.07342   0.01285   0.00000   0.00000  -0.08369
   2        2S          0.15431   0.01655   0.00000   0.00000  -0.17155
   3        2PX         0.00000   0.00000   0.00000   0.08167   0.00000
   4        2PY         0.00000   0.00000   0.08167   0.00000   0.00000
   5        2PZ        -0.05425   0.27428   0.00000   0.00000  -0.08969
   6        3S         -1.01405   0.11353   0.00000   0.00000   1.36211
   7        3PX         0.00000   0.00000   0.00000   0.38178   0.00000
   8        3PY         0.00000   0.00000   0.38178   0.00000   0.00000
   9        3PZ        -0.26531   0.44286   0.00000   0.00000   0.58322
  10        4S          1.54945   3.32966   0.00000   0.00000 -10.78657
  11        4PX         0.00000   0.00000   0.00000  -0.16338   0.00000
  12        4PY         0.00000   0.00000  -0.16338   0.00000   0.00000
  13        4PZ         0.43644  -2.62007   0.00000   0.00000   4.38382
  14        5S         -0.61134   6.02451   0.00000   0.00000  17.84607
  15        5PX         0.00000   0.00000   0.00000   0.03419   0.00000
  16        5PY         0.00000   0.00000   0.03419   0.00000   0.00000
  17        5PZ         0.17422  -1.26926   0.00000   0.00000  -4.72013
  18        6D 0       -0.00574   0.01193   0.00000   0.00000  -0.02279
  19        6D+1        0.00000   0.00000   0.00000   0.01073   0.00000
  20        6D-1        0.00000   0.00000   0.01073   0.00000   0.00000
  21        6D+2        0.00000  -0.00000   0.00000   0.00000  -0.00000
  22        6D-2        0.00000   0.00000   0.00000   0.00000   0.00000
  23        7D 0       -0.30399   0.57260   0.00000   0.00000  -0.67774
  24        7D+1        0.00000   0.00000   0.00000   0.62632   0.00000
  25        7D-1        0.00000   0.00000   0.62632   0.00000   0.00000
  26        7D+2       -0.00000   0.00000   0.00000   0.00000   0.00000
  27        7D-2        0.00000   0.00000   0.00000   0.00000   0.00000
  28 2   N  1S          0.07342  -0.01285   0.00000   0.00000   0.08369
  29        2S          0.15431  -0.01655   0.00000   0.00000   0.17155
  30        2PX         0.00000   0.00000   0.00000   0.08167   0.00000
  31        2PY         0.00000   0.00000   0.08167   0.00000   0.00000
  32        2PZ         0.05425   0.27428   0.00000   0.00000  -0.08969
  33        3S         -1.01405  -0.11353   0.00000   0.00000  -1.36211
  34        3PX         0.00000   0.00000   0.00000   0.38178   0.00000
  35        3PY         0.00000   0.00000   0.38178   0.00000   0.00000
  36        3PZ         0.26531   0.44286   0.00000   0.00000   0.58322
  37        4S          1.54945  -3.32966   0.00000   0.00000  10.78657
  38        4PX         0.00000   0.00000   0.00000  -0.16338   0.00000
  39        4PY         0.00000   0.00000  -0.16338   0.00000   0.00000
  40        4PZ        -0.43644  -2.62007   0.00000   0.00000   4.38382
  41        5S         -0.61134  -6.02451   0.00000   0.00000 -17.84607
  42        5PX         0.00000   0.00000   0.00000   0.03419   0.00000
  43        5PY         0.00000   0.00000   0.03419   0.00000   0.00000
  44        5PZ        -0.17422  -1.26926   0.00000   0.00000  -4.72013
  45        6D 0       -0.00574  -0.01193   0.00000   0.00000   0.02279
  46        6D+1        0.00000   0.00000   0.00000  -0.01073   0.00000
  47        6D-1        0.00000   0.00000  -0.01073   0.00000   0.00000
  48        6D+2        0.00000   0.00000   0.00000   0.00000   0.00000
  49        6D-2        0.00000   0.00000   0.00000   0.00000   0.00000
  50        7D 0       -0.30399  -0.57260   0.00000   0.00000   0.67774
  51        7D+1        0.00000   0.00000   0.00000  -0.62632   0.00000
  52        7D-1        0.00000   0.00000  -0.62632   0.00000   0.00000
  53        7D+2       -0.00000  -0.00000   0.00000   0.00000  -0.00000
  54        7D-2        0.00000   0.00000   0.00000   0.00000   0.00000
                          31        32        33        34        35
                       (DLTU)--  (DLTU)--  (PIG)--V  (PIG)--V  (SGG)--V
     Eigenvalues --     1.48431   1.48431   2.01039   2.01039   2.08808
   1 1   N  1S          0.00000   0.00000   0.00000   0.00000  -0.03827
   2        2S          0.00000   0.00000   0.00000   0.00000  -0.10665
   3        2PX         0.00000   0.00000  -0.08902   0.00000   0.00000
   4        2PY         0.00000   0.00000   0.00000  -0.08902   0.00000
   5        2PZ         0.00000   0.00000   0.00000   0.00000   0.05476
   6        3S          0.00000  -0.00000   0.00000   0.00000   1.70214
   7        3PX         0.00000   0.00000  -0.43056   0.00000   0.00000
   8        3PY         0.00000   0.00000   0.00000  -0.43056   0.00000
   9        3PZ         0.00000  -0.00000   0.00000   0.00000  -0.52033
  10        4S          0.00000   0.00000   0.00000   0.00000  -0.74343
  11        4PX         0.00000   0.00000  -1.55005   0.00000   0.00000
  12        4PY         0.00000   0.00000   0.00000  -1.55005   0.00000
  13        4PZ         0.00000  -0.00000   0.00000   0.00000   1.38657
  14        5S          0.00000  -0.00000   0.00000   0.00000  -0.00100
  15        5PX         0.00000   0.00000   0.43477   0.00000   0.00000
  16        5PY         0.00000   0.00000   0.00000   0.43477   0.00000
  17        5PZ         0.00000   0.00000   0.00000   0.00000  -0.40204
  18        6D 0        0.00000   0.00000   0.00000   0.00000   0.01859
  19        6D+1        0.00000   0.00000  -0.01748   0.00000   0.00000
  20        6D-1        0.00000   0.00000   0.00000  -0.01748   0.00000
  21        6D+2        0.00000  -0.00606   0.00000   0.00000  -0.00000
  22        6D-2       -0.00606   0.00000   0.00000   0.00000   0.00000
  23        7D 0        0.00000   0.00000   0.00000   0.00000  -1.36986
  24        7D+1        0.00000   0.00000   1.71993   0.00000   0.00000
  25        7D-1        0.00000   0.00000   0.00000   1.71993   0.00000
  26        7D+2        0.00000   0.90032   0.00000   0.00000  -0.00000
  27        7D-2        0.90032   0.00000   0.00000   0.00000   0.00000
  28 2   N  1S          0.00000  -0.00000   0.00000   0.00000  -0.03827
  29        2S          0.00000  -0.00000   0.00000   0.00000  -0.10665
  30        2PX         0.00000   0.00000   0.08902   0.00000   0.00000
  31        2PY         0.00000   0.00000   0.00000   0.08902   0.00000
  32        2PZ         0.00000   0.00000   0.00000   0.00000  -0.05476
  33        3S          0.00000   0.00000   0.00000   0.00000   1.70214
  34        3PX         0.00000   0.00000   0.43056   0.00000   0.00000
  35        3PY         0.00000   0.00000   0.00000   0.43056   0.00000
  36        3PZ         0.00000  -0.00000   0.00000   0.00000   0.52033
  37        4S          0.00000  -0.00000   0.00000   0.00000  -0.74343
  38        4PX         0.00000   0.00000   1.55005   0.00000   0.00000
  39        4PY         0.00000   0.00000   0.00000   1.55005   0.00000
  40        4PZ         0.00000  -0.00000   0.00000   0.00000  -1.38657
  41        5S          0.00000   0.00000   0.00000   0.00000  -0.00100
  42        5PX         0.00000   0.00000  -0.43477   0.00000   0.00000
  43        5PY         0.00000   0.00000   0.00000  -0.43477   0.00000
  44        5PZ         0.00000   0.00000   0.00000   0.00000   0.40204
  45        6D 0        0.00000  -0.00000   0.00000   0.00000   0.01859
  46        6D+1        0.00000   0.00000  -0.01748   0.00000   0.00000
  47        6D-1        0.00000   0.00000   0.00000  -0.01748   0.00000
  48        6D+2        0.00000   0.00606   0.00000   0.00000  -0.00000
  49        6D-2        0.00606   0.00000   0.00000   0.00000   0.00000
  50        7D 0        0.00000  -0.00000   0.00000   0.00000  -1.36986
  51        7D+1        0.00000   0.00000   1.71993   0.00000   0.00000
  52        7D-1        0.00000   0.00000   0.00000   1.71993   0.00000
  53        7D+2        0.00000  -0.90032   0.00000   0.00000  -0.00000
  54        7D-2       -0.90032   0.00000   0.00000   0.00000   0.00000
                          36        37        38        39        40
                       (SGU)--V  (PIU)--V  (PIU)--V  (PIG)--V  (PIG)--V
     Eigenvalues --     2.31306   4.12875   4.12875   4.40529   4.40529
   1 1   N  1S         -0.04686   0.00000   0.00000   0.00000   0.00000
   2        2S         -0.11267   0.00000   0.00000   0.00000   0.00000
   3        2PX         0.00000  -0.91691   0.00000   0.00000  -0.93948
   4        2PY         0.00000   0.00000  -0.91691  -0.93948   0.00000
   5        2PZ        -0.27076   0.00000   0.00000   0.00000   0.00000
   6        3S          0.89808   0.00000   0.00000   0.00000   0.00000
   7        3PX         0.00000   1.02168   0.00000   0.00000   1.32291
   8        3PY         0.00000   0.00000   1.02168   1.32291   0.00000
   9        3PZ        -1.46532   0.00000   0.00000   0.00000   0.00000
  10        4S          9.65570   0.00000   0.00000   0.00000   0.00000
  11        4PX         0.00000  -0.48074   0.00000   0.00000  -0.42687
  12        4PY         0.00000   0.00000  -0.48074  -0.42687   0.00000
  13        4PZ        -4.80373   0.00000   0.00000   0.00000   0.00000
  14        5S         -3.46440   0.00000   0.00000   0.00000   0.00000
  15        5PX         0.00000   0.14777   0.00000   0.00000   0.32001
  16        5PY         0.00000   0.00000   0.14777   0.32001   0.00000
  17        5PZ         1.12790   0.00000   0.00000   0.00000   0.00000
  18        6D 0       -0.02090   0.00000   0.00000   0.00000   0.00000
  19        6D+1        0.00000  -0.08991   0.00000   0.00000   0.05331
  20        6D-1        0.00000   0.00000  -0.08991   0.05331   0.00000
  21        6D+2        0.00000   0.00000   0.00000   0.00000   0.00000
  22        6D-2        0.00000   0.00000   0.00000   0.00000   0.00000
  23        7D 0        1.74429   0.00000   0.00000   0.00000   0.00000
  24        7D+1        0.00000   0.11905   0.00000   0.00000  -0.45336
  25        7D-1        0.00000   0.00000   0.11905  -0.45336   0.00000
  26        7D+2       -0.00000   0.00000   0.00000   0.00000   0.00000
  27        7D-2        0.00000   0.00000   0.00000   0.00000   0.00000
  28 2   N  1S          0.04686   0.00000   0.00000   0.00000   0.00000
  29        2S          0.11267   0.00000   0.00000   0.00000   0.00000
  30        2PX         0.00000  -0.91691   0.00000   0.00000   0.93948
  31        2PY         0.00000   0.00000  -0.91691   0.93948   0.00000
  32        2PZ        -0.27076   0.00000   0.00000   0.00000   0.00000
  33        3S         -0.89808   0.00000   0.00000   0.00000   0.00000
  34        3PX         0.00000   1.02168   0.00000   0.00000  -1.32291
  35        3PY         0.00000   0.00000   1.02168  -1.32291   0.00000
  36        3PZ        -1.46532   0.00000   0.00000   0.00000   0.00000
  37        4S         -9.65570   0.00000   0.00000   0.00000   0.00000
  38        4PX         0.00000  -0.48074   0.00000   0.00000   0.42687
  39        4PY         0.00000   0.00000  -0.48074   0.42687   0.00000
  40        4PZ        -4.80373   0.00000   0.00000   0.00000   0.00000
  41        5S          3.46440   0.00000   0.00000   0.00000   0.00000
  42        5PX         0.00000   0.14777   0.00000   0.00000  -0.32001
  43        5PY         0.00000   0.00000   0.14777  -0.32001   0.00000
  44        5PZ         1.12790   0.00000   0.00000   0.00000   0.00000
  45        6D 0        0.02090   0.00000   0.00000   0.00000   0.00000
  46        6D+1        0.00000   0.08991   0.00000   0.00000   0.05331
  47        6D-1        0.00000   0.00000   0.08991   0.05331   0.00000
  48        6D+2       -0.00000   0.00000   0.00000   0.00000   0.00000
  49        6D-2        0.00000   0.00000   0.00000   0.00000   0.00000
  50        7D 0       -1.74429   0.00000   0.00000   0.00000   0.00000
  51        7D+1        0.00000  -0.11905   0.00000   0.00000  -0.45336
  52        7D-1        0.00000   0.00000  -0.11905  -0.45336   0.00000
  53        7D+2        0.00000   0.00000   0.00000   0.00000   0.00000
  54        7D-2        0.00000   0.00000   0.00000   0.00000   0.00000
                          41        42        43        44        45
                       (SGG)--V  (PIU)--V  (PIU)--V  (SGG)--V  (DLTG)--
     Eigenvalues --     4.44257   4.76575   4.76575   4.84424   5.02200
   1 1   N  1S         -0.00436   0.00000   0.00000   0.00575   0.00000
   2        2S          0.01128   0.00000   0.00000   0.01632   0.00000
   3        2PX         0.00000   0.00000  -0.12216   0.00000   0.00000
   4        2PY         0.00000  -0.12216   0.00000   0.00000   0.00000
   5        2PZ         0.73644   0.00000   0.00000   0.64146   0.00000
   6        3S         -0.54382   0.00000   0.00000   0.12205   0.00000
   7        3PX         0.00000   0.00000   0.11425   0.00000   0.00000
   8        3PY         0.00000   0.11425   0.00000   0.00000   0.00000
   9        3PZ        -0.70566   0.00000   0.00000  -0.64027   0.00000
  10        4S          0.22387   0.00000   0.00000   0.13964   0.00000
  11        4PX         0.00000   0.00000  -0.14248   0.00000   0.00000
  12        4PY         0.00000  -0.14248   0.00000   0.00000   0.00000
  13        4PZ         0.10190   0.00000   0.00000   0.56746   0.00000
  14        5S         -0.02681   0.00000   0.00000  -0.12094   0.00000
  15        5PX         0.00000   0.00000   0.05846   0.00000   0.00000
  16        5PY         0.00000   0.05846   0.00000   0.00000   0.00000
  17        5PZ        -0.20608   0.00000   0.00000  -0.13619   0.00000
  18        6D 0       -0.51215   0.00000   0.00000   0.56257   0.00000
  19        6D+1        0.00000   0.00000   0.78390   0.00000   0.00000
  20        6D-1        0.00000   0.78390   0.00000   0.00000   0.00000
  21        6D+2       -0.00000   0.00000   0.00000  -0.00000   0.00000
  22        6D-2        0.00000   0.00000   0.00000   0.00000   0.79190
  23        7D 0        0.62725   0.00000   0.00000  -0.44617   0.00000
  24        7D+1        0.00000   0.00000  -0.41716   0.00000   0.00000
  25        7D-1        0.00000  -0.41716   0.00000   0.00000   0.00000
  26        7D+2        0.00000   0.00000   0.00000   0.00000   0.00000
  27        7D-2        0.00000   0.00000   0.00000   0.00000  -0.32189
  28 2   N  1S         -0.00436   0.00000   0.00000   0.00575   0.00000
  29        2S          0.01128   0.00000   0.00000   0.01632   0.00000
  30        2PX         0.00000   0.00000  -0.12216   0.00000   0.00000
  31        2PY         0.00000  -0.12216   0.00000   0.00000   0.00000
  32        2PZ        -0.73644   0.00000   0.00000  -0.64146   0.00000
  33        3S         -0.54382   0.00000   0.00000   0.12205   0.00000
  34        3PX         0.00000   0.00000   0.11425   0.00000   0.00000
  35        3PY         0.00000   0.11425   0.00000   0.00000   0.00000
  36        3PZ         0.70566   0.00000   0.00000   0.64027   0.00000
  37        4S          0.22387   0.00000   0.00000   0.13964   0.00000
  38        4PX         0.00000   0.00000  -0.14248   0.00000   0.00000
  39        4PY         0.00000  -0.14248   0.00000   0.00000   0.00000
  40        4PZ        -0.10190   0.00000   0.00000  -0.56746   0.00000
  41        5S         -0.02681   0.00000   0.00000  -0.12094   0.00000
  42        5PX         0.00000   0.00000   0.05846   0.00000   0.00000
  43        5PY         0.00000   0.05846   0.00000   0.00000   0.00000
  44        5PZ         0.20608   0.00000   0.00000   0.13619   0.00000
  45        6D 0       -0.51215   0.00000   0.00000   0.56257   0.00000
  46        6D+1        0.00000   0.00000  -0.78390   0.00000   0.00000
  47        6D-1        0.00000  -0.78390   0.00000   0.00000   0.00000
  48        6D+2       -0.00000   0.00000   0.00000  -0.00000   0.00000
  49        6D-2        0.00000   0.00000   0.00000   0.00000   0.79190
  50        7D 0        0.62725   0.00000   0.00000  -0.44617   0.00000
  51        7D+1        0.00000   0.00000   0.41716   0.00000   0.00000
  52        7D-1        0.00000   0.41716   0.00000   0.00000   0.00000
  53        7D+2        0.00000   0.00000   0.00000   0.00000   0.00000
  54        7D-2        0.00000   0.00000   0.00000   0.00000  -0.32189
                          46        47        48        49        50
                       (DLTG)--  (SGU)--V  (DLTU)--  (DLTU)--  (PIG)--V
     Eigenvalues --     5.02200   5.10945   5.19582   5.19582   5.70447
   1 1   N  1S         -0.00000  -0.04009   0.00000   0.00000   0.00000
   2        2S         -0.00000  -0.09697   0.00000   0.00000   0.00000
   3        2PX         0.00000   0.00000   0.00000   0.00000   0.06977
   4        2PY         0.00000   0.00000   0.00000   0.00000   0.00000
   5        2PZ         0.00000   0.96844   0.00000  -0.00000   0.00000
   6        3S          0.00000   0.89625   0.00000  -0.00000   0.00000
   7        3PX         0.00000   0.00000   0.00000   0.00000  -0.00563
   8        3PY         0.00000   0.00000   0.00000   0.00000   0.00000
   9        3PZ        -0.00000  -2.94629   0.00000   0.00000   0.00000
  10        4S          0.00000   8.31645   0.00000  -0.00000   0.00000
  11        4PX         0.00000   0.00000   0.00000   0.00000   0.63964
  12        4PY         0.00000   0.00000   0.00000   0.00000   0.00000
  13        4PZ         0.00000  -3.36128   0.00000   0.00000   0.00000
  14        5S         -0.00000  -7.97752   0.00000   0.00000   0.00000
  15        5PX         0.00000   0.00000   0.00000   0.00000  -0.19545
  16        5PY         0.00000   0.00000   0.00000   0.00000   0.00000
  17        5PZ        -0.00000   2.12829   0.00000  -0.00000   0.00000
  18        6D 0        0.00000  -0.13595   0.00000   0.00000   0.00000
  19        6D+1        0.00000   0.00000   0.00000   0.00000   0.84576
  20        6D-1        0.00000   0.00000   0.00000   0.00000   0.00000
  21        6D+2        0.79190   0.00000   0.00000   0.80601   0.00000
  22        6D-2        0.00000   0.00000   0.80601   0.00000   0.00000
  23        7D 0       -0.00000   1.43974   0.00000  -0.00000   0.00000
  24        7D+1        0.00000   0.00000   0.00000   0.00000  -0.71250
  25        7D-1        0.00000   0.00000   0.00000   0.00000   0.00000
  26        7D+2       -0.32189  -0.00000   0.00000  -0.46163   0.00000
  27        7D-2        0.00000   0.00000  -0.46163   0.00000   0.00000
  28 2   N  1S         -0.00000   0.04009   0.00000  -0.00000   0.00000
  29        2S         -0.00000   0.09697   0.00000  -0.00000   0.00000
  30        2PX         0.00000   0.00000   0.00000   0.00000  -0.06977
  31        2PY         0.00000   0.00000   0.00000   0.00000   0.00000
  32        2PZ        -0.00000   0.96844   0.00000  -0.00000   0.00000
  33        3S          0.00000  -0.89625   0.00000   0.00000   0.00000
  34        3PX         0.00000   0.00000   0.00000   0.00000   0.00563
  35        3PY         0.00000   0.00000   0.00000   0.00000   0.00000
  36        3PZ         0.00000  -2.94629   0.00000   0.00000   0.00000
  37        4S          0.00000  -8.31645   0.00000   0.00000   0.00000
  38        4PX         0.00000   0.00000   0.00000   0.00000  -0.63964
  39        4PY         0.00000   0.00000   0.00000   0.00000   0.00000
  40        4PZ        -0.00000  -3.36128   0.00000   0.00000   0.00000
  41        5S         -0.00000   7.97752   0.00000  -0.00000   0.00000
  42        5PX         0.00000   0.00000   0.00000   0.00000   0.19545
  43        5PY         0.00000   0.00000   0.00000   0.00000   0.00000
  44        5PZ         0.00000   2.12829   0.00000  -0.00000   0.00000
  45        6D 0        0.00000   0.13595   0.00000  -0.00000   0.00000
  46        6D+1        0.00000   0.00000   0.00000   0.00000   0.84576
  47        6D-1        0.00000   0.00000   0.00000   0.00000   0.00000
  48        6D+2        0.79190  -0.00000   0.00000  -0.80601   0.00000
  49        6D-2        0.00000   0.00000  -0.80601   0.00000   0.00000
  50        7D 0       -0.00000  -1.43974   0.00000   0.00000   0.00000
  51        7D+1        0.00000   0.00000   0.00000   0.00000  -0.71250
  52        7D-1        0.00000   0.00000   0.00000   0.00000   0.00000
  53        7D+2       -0.32189   0.00000   0.00000   0.46163   0.00000
  54        7D-2        0.00000   0.00000   0.46163   0.00000   0.00000
                          51        52        53        54
                       (PIG)--V  (SGU)--V  (SGG)--V  (SGU)--V
     Eigenvalues --     5.70447   6.72262  36.50459  37.42918
   1 1   N  1S          0.00000   0.05666  -1.51695  -1.52442
   2        2S          0.00000   0.08134   1.59452   1.64368
   3        2PX         0.00000   0.00000   0.00000   0.00000
   4        2PY         0.06977   0.00000   0.00000   0.00000
   5        2PZ         0.00000  -0.26237   0.00287  -0.08074
   6        3S          0.00000  -0.53364  -0.29933  -0.45251
   7        3PX         0.00000   0.00000   0.00000   0.00000
   8        3PY        -0.00563   0.00000   0.00000   0.00000
   9        3PZ         0.00000   1.21188   0.00539   0.45763
  10        4S          0.00000  -0.19255   0.20465  -0.63080
  11        4PX         0.00000   0.00000   0.00000   0.00000
  12        4PY         0.63964   0.00000   0.00000   0.00000
  13        4PZ         0.00000  -0.33163  -0.07280   0.32495
  14        5S          0.00000   2.93837  -0.05090  -0.34253
  15        5PX         0.00000   0.00000   0.00000   0.00000
  16        5PY        -0.19545   0.00000   0.00000   0.00000
  17        5PZ         0.00000  -0.68846   0.05263   0.07235
  18        6D 0        0.00000  -0.97764   0.00514  -0.08165
  19        6D+1        0.00000   0.00000   0.00000   0.00000
  20        6D-1        0.84576   0.00000   0.00000   0.00000
  21        6D+2        0.00000   0.00000  -0.00000  -0.00000
  22        6D-2        0.00000   0.00000   0.00000   0.00000
  23        7D 0        0.00000   0.07122   0.06906  -0.20230
  24        7D+1        0.00000   0.00000   0.00000   0.00000
  25        7D-1       -0.71250   0.00000   0.00000   0.00000
  26        7D+2        0.00000  -0.00000  -0.00000   0.00000
  27        7D-2        0.00000   0.00000   0.00000   0.00000
  28 2   N  1S          0.00000  -0.05666  -1.51695   1.52442
  29        2S          0.00000  -0.08134   1.59452  -1.64368
  30        2PX         0.00000   0.00000   0.00000   0.00000
  31        2PY        -0.06977   0.00000   0.00000   0.00000
  32        2PZ         0.00000  -0.26237  -0.00287  -0.08074
  33        3S          0.00000   0.53364  -0.29933   0.45251
  34        3PX         0.00000   0.00000   0.00000   0.00000
  35        3PY         0.00563   0.00000   0.00000   0.00000
  36        3PZ         0.00000   1.21188  -0.00539   0.45763
  37        4S          0.00000   0.19255   0.20465   0.63080
  38        4PX         0.00000   0.00000   0.00000   0.00000
  39        4PY        -0.63964   0.00000   0.00000   0.00000
  40        4PZ         0.00000  -0.33163   0.07280   0.32495
  41        5S          0.00000  -2.93837  -0.05090   0.34253
  42        5PX         0.00000   0.00000   0.00000   0.00000
  43        5PY         0.19545   0.00000   0.00000   0.00000
  44        5PZ         0.00000  -0.68846  -0.05263   0.07235
  45        6D 0        0.00000   0.97764   0.00514   0.08165
  46        6D+1        0.00000   0.00000   0.00000   0.00000
  47        6D-1        0.84576   0.00000   0.00000   0.00000
  48        6D+2        0.00000  -0.00000  -0.00000   0.00000
  49        6D-2        0.00000   0.00000   0.00000   0.00000
  50        7D 0        0.00000  -0.07122   0.06906   0.20230
  51        7D+1        0.00000   0.00000   0.00000   0.00000
  52        7D-1       -0.71250   0.00000   0.00000   0.00000
  53        7D+2        0.00000   0.00000  -0.00000  -0.00000
  54        7D-2        0.00000   0.00000   0.00000   0.00000
     Beta Molecular Orbital Coefficients:
                           1         2         3         4         5
                       (SGG)--O  (SGU)--O  (SGG)--O  (SGU)--O  (SGG)--O
     Eigenvalues --   -15.68471 -15.68104  -1.48018  -0.77858  -0.63730
   1 1   N  1S          0.39425   0.39446  -0.08733  -0.07975  -0.02835
   2        2S          0.33101   0.33141  -0.14362  -0.13515  -0.04773
   3        2PX         0.00000   0.00000   0.00000   0.00000   0.00000
   4        2PY         0.00000   0.00000   0.00000   0.00000   0.00000
   5        2PZ        -0.00163  -0.00121  -0.10732   0.09868   0.21281
   6        3S          0.00364   0.00258   0.38534   0.39235   0.13219
   7        3PX         0.00000   0.00000   0.00000   0.00000   0.00000
   8        3PY         0.00000   0.00000   0.00000   0.00000   0.00000
   9        3PZ         0.00001   0.00109  -0.14336   0.14509   0.31068
  10        4S         -0.00030  -0.00305   0.16845   0.47002   0.27651
  11        4PX         0.00000   0.00000   0.00000   0.00000   0.00000
  12        4PY         0.00000   0.00000   0.00000   0.00000   0.00000
  13        4PZ        -0.00003   0.00112  -0.03137   0.06048   0.17610
  14        5S          0.00013   0.00497  -0.00739  -0.31070   0.03369
  15        5PX         0.00000   0.00000   0.00000   0.00000   0.00000
  16        5PY         0.00000   0.00000   0.00000   0.00000   0.00000
  17        5PZ        -0.00002  -0.00128   0.00701   0.08960   0.00197
  18        6D 0        0.00053   0.00024   0.02023  -0.00314  -0.01844
  19        6D+1        0.00000   0.00000   0.00000   0.00000   0.00000
  20        6D-1        0.00000   0.00000   0.00000   0.00000   0.00000
  21        6D+2       -0.00000   0.00000   0.00000   0.00000   0.00000
  22        6D-2        0.00000   0.00000   0.00000   0.00000   0.00000
  23        7D 0       -0.00009  -0.00031   0.01522  -0.00296  -0.00968
  24        7D+1        0.00000   0.00000   0.00000   0.00000   0.00000
  25        7D-1        0.00000   0.00000   0.00000   0.00000   0.00000
  26        7D+2       -0.00000  -0.00000  -0.00000   0.00000   0.00000
  27        7D-2        0.00000   0.00000   0.00000   0.00000   0.00000
  28 2   N  1S          0.39425  -0.39446  -0.08733   0.07975  -0.02835
  29        2S          0.33101  -0.33141  -0.14362   0.13515  -0.04773
  30        2PX         0.00000   0.00000   0.00000   0.00000   0.00000
  31        2PY         0.00000   0.00000   0.00000   0.00000   0.00000
  32        2PZ         0.00163  -0.00121   0.10732   0.09868  -0.21281
  33        3S          0.00364  -0.00258   0.38534  -0.39235   0.13219
  34        3PX         0.00000   0.00000   0.00000   0.00000   0.00000
  35        3PY         0.00000   0.00000   0.00000   0.00000   0.00000
  36        3PZ        -0.00001   0.00109   0.14336   0.14509  -0.31068
  37        4S         -0.00030   0.00305   0.16845  -0.47002   0.27651
  38        4PX         0.00000   0.00000   0.00000   0.00000   0.00000
  39        4PY         0.00000   0.00000   0.00000   0.00000   0.00000
  40        4PZ         0.00003   0.00112   0.03137   0.06048  -0.17610
  41        5S          0.00013  -0.00497  -0.00739   0.31070   0.03369
  42        5PX         0.00000   0.00000   0.00000   0.00000   0.00000
  43        5PY         0.00000   0.00000   0.00000   0.00000   0.00000
  44        5PZ         0.00002  -0.00128  -0.00701   0.08960  -0.00197
  45        6D 0        0.00053  -0.00024   0.02023   0.00314  -0.01844
  46        6D+1        0.00000   0.00000   0.00000   0.00000   0.00000
  47        6D-1        0.00000   0.00000   0.00000   0.00000   0.00000
  48        6D+2       -0.00000  -0.00000   0.00000  -0.00000   0.00000
  49        6D-2        0.00000   0.00000   0.00000   0.00000   0.00000
  50        7D 0       -0.00009   0.00031   0.01522   0.00296  -0.00968
  51        7D+1        0.00000   0.00000   0.00000   0.00000   0.00000
  52        7D-1        0.00000   0.00000   0.00000   0.00000   0.00000
  53        7D+2       -0.00000   0.00000  -0.00000  -0.00000   0.00000
  54        7D-2        0.00000   0.00000   0.00000   0.00000   0.00000
                           6         7         8         9        10
                       (PIU)--O  (PIU)--O  (PIG)--V  (PIG)--V  (SGU)--V
     Eigenvalues --    -0.61752  -0.61752   0.13129   0.13129   0.13854
   1 1   N  1S          0.00000   0.00000   0.00000   0.00000  -0.01619
   2        2S          0.00000   0.00000   0.00000   0.00000  -0.02776
   3        2PX         0.19035   0.00000   0.00000   0.14176   0.00000
   4        2PY         0.00000   0.19035   0.14176   0.00000   0.00000
   5        2PZ         0.00000   0.00000   0.00000   0.00000   0.01127
   6        3S          0.00000   0.00000   0.00000   0.00000   0.10265
   7        3PX         0.30632   0.00000   0.00000   0.24403   0.00000
   8        3PY         0.00000   0.30632   0.24403   0.00000   0.00000
   9        3PZ         0.00000   0.00000   0.00000   0.00000   0.07063
  10        4S          0.00000   0.00000   0.00000   0.00000  -1.18521
  11        4PX         0.21558   0.00000   0.00000   0.25157   0.00000
  12        4PY         0.00000   0.21558   0.25157   0.00000   0.00000
  13        4PZ         0.00000   0.00000   0.00000   0.00000   0.82009
  14        5S          0.00000   0.00000   0.00000   0.00000  16.42624
  15        5PX         0.00930   0.00000   0.00000   1.22039   0.00000
  16        5PY         0.00000   0.00930   1.22039   0.00000   0.00000
  17        5PZ         0.00000   0.00000   0.00000   0.00000  -5.16106
  18        6D 0        0.00000   0.00000   0.00000   0.00000   0.00067
  19        6D+1       -0.02042   0.00000   0.00000   0.00710   0.00000
  20        6D-1        0.00000  -0.02042   0.00710   0.00000   0.00000
  21        6D+2        0.00000   0.00000   0.00000   0.00000  -0.00000
  22        6D-2        0.00000   0.00000   0.00000   0.00000   0.00000
  23        7D 0        0.00000   0.00000   0.00000   0.00000  -0.09821
  24        7D+1       -0.04152   0.00000   0.00000   0.03251   0.00000
  25        7D-1        0.00000  -0.04152   0.03251   0.00000   0.00000
  26        7D+2        0.00000   0.00000   0.00000   0.00000   0.00000
  27        7D-2        0.00000   0.00000   0.00000   0.00000   0.00000
  28 2   N  1S          0.00000   0.00000   0.00000   0.00000   0.01619
  29        2S          0.00000   0.00000   0.00000   0.00000   0.02776
  30        2PX         0.19035   0.00000   0.00000  -0.14176   0.00000
  31        2PY         0.00000   0.19035  -0.14176   0.00000   0.00000
  32        2PZ         0.00000   0.00000   0.00000   0.00000   0.01127
  33        3S          0.00000   0.00000   0.00000   0.00000  -0.10265
  34        3PX         0.30632   0.00000   0.00000  -0.24403   0.00000
  35        3PY         0.00000   0.30632  -0.24403   0.00000   0.00000
  36        3PZ         0.00000   0.00000   0.00000   0.00000   0.07063
  37        4S          0.00000   0.00000   0.00000   0.00000   1.18521
  38        4PX         0.21558   0.00000   0.00000  -0.25157   0.00000
  39        4PY         0.00000   0.21558  -0.25157   0.00000   0.00000
  40        4PZ         0.00000   0.00000   0.00000   0.00000   0.82009
  41        5S          0.00000   0.00000   0.00000   0.00000 -16.42624
  42        5PX         0.00930   0.00000   0.00000  -1.22039   0.00000
  43        5PY         0.00000   0.00930  -1.22039   0.00000   0.00000
  44        5PZ         0.00000   0.00000   0.00000   0.00000  -5.16106
  45        6D 0        0.00000   0.00000   0.00000   0.00000  -0.00067
  46        6D+1        0.02042   0.00000   0.00000   0.00710   0.00000
  47        6D-1        0.00000   0.02042   0.00710   0.00000   0.00000
  48        6D+2        0.00000   0.00000   0.00000   0.00000   0.00000
  49        6D-2        0.00000   0.00000   0.00000   0.00000   0.00000
  50        7D 0        0.00000   0.00000   0.00000   0.00000   0.09821
  51        7D+1        0.04152   0.00000   0.00000   0.03251   0.00000
  52        7D-1        0.00000   0.04152   0.03251   0.00000   0.00000
  53        7D+2        0.00000   0.00000   0.00000   0.00000  -0.00000
  54        7D-2        0.00000   0.00000   0.00000   0.00000   0.00000
                          11        12        13        14        15
                       (SGG)--V  (PIU)--V  (PIU)--V  (SGG)--V  (PIG)--V
     Eigenvalues --     0.14310   0.16510   0.16510   0.22088   0.27131
   1 1   N  1S          0.01923   0.00000   0.00000  -0.01327   0.00000
   2        2S          0.03131   0.00000   0.00000  -0.02016   0.00000
   3        2PX         0.00000   0.00000  -0.06132   0.00000  -0.15766
   4        2PY         0.00000  -0.06132   0.00000   0.00000   0.00000
   5        2PZ        -0.05416   0.00000   0.00000  -0.01105   0.00000
   6        3S         -0.07853   0.00000   0.00000   0.00396   0.00000
   7        3PX         0.00000   0.00000  -0.04225   0.00000  -0.20545
   8        3PY         0.00000  -0.04225   0.00000   0.00000   0.00000
   9        3PZ        -0.03212   0.00000   0.00000   0.01407   0.00000
  10        4S         -0.58291   0.00000   0.00000   0.54835   0.00000
  11        4PX         0.00000   0.00000  -0.29934   0.00000  -0.84101
  12        4PY         0.00000  -0.29934   0.00000   0.00000   0.00000
  13        4PZ        -0.29385   0.00000   0.00000  -0.07634   0.00000
  14        5S          0.91078   0.00000   0.00000  -0.21232   0.00000
  15        5PX         0.00000   0.00000   0.66309   0.00000   2.03307
  16        5PY         0.00000   0.66309   0.00000   0.00000   0.00000
  17        5PZ         0.69333   0.00000   0.00000   1.50880   0.00000
  18        6D 0       -0.00140   0.00000   0.00000   0.01040   0.00000
  19        6D+1        0.00000   0.00000   0.00841   0.00000  -0.00977
  20        6D-1        0.00000   0.00841   0.00000   0.00000   0.00000
  21        6D+2        0.00000   0.00000   0.00000  -0.00000   0.00000
  22        6D-2        0.00000   0.00000   0.00000   0.00000   0.00000
  23        7D 0        0.02752   0.00000   0.00000   0.01937   0.00000
  24        7D+1        0.00000   0.00000   0.01040   0.00000   0.03942
  25        7D-1        0.00000   0.01040   0.00000   0.00000   0.00000
  26        7D+2        0.00000   0.00000   0.00000  -0.00000   0.00000
  27        7D-2        0.00000   0.00000   0.00000   0.00000   0.00000
  28 2   N  1S          0.01923   0.00000   0.00000  -0.01327   0.00000
  29        2S          0.03131   0.00000   0.00000  -0.02016   0.00000
  30        2PX         0.00000   0.00000  -0.06132   0.00000   0.15766
  31        2PY         0.00000  -0.06132   0.00000   0.00000   0.00000
  32        2PZ         0.05416   0.00000   0.00000   0.01105   0.00000
  33        3S         -0.07853   0.00000   0.00000   0.00396   0.00000
  34        3PX         0.00000   0.00000  -0.04225   0.00000   0.20545
  35        3PY         0.00000  -0.04225   0.00000   0.00000   0.00000
  36        3PZ         0.03212   0.00000   0.00000  -0.01407   0.00000
  37        4S         -0.58291   0.00000   0.00000   0.54835   0.00000
  38        4PX         0.00000   0.00000  -0.29934   0.00000   0.84101
  39        4PY         0.00000  -0.29934   0.00000   0.00000   0.00000
  40        4PZ         0.29385   0.00000   0.00000   0.07634   0.00000
  41        5S          0.91078   0.00000   0.00000  -0.21232   0.00000
  42        5PX         0.00000   0.00000   0.66309   0.00000  -2.03307
  43        5PY         0.00000   0.66309   0.00000   0.00000   0.00000
  44        5PZ        -0.69333   0.00000   0.00000  -1.50880   0.00000
  45        6D 0       -0.00140   0.00000   0.00000   0.01040   0.00000
[...]
    43. (0.00000) RY*(14) N   2           s(  0.00%)p 0.00(  0.00%)d 1.00(100.00%)
    44. (0.00000) RY*(15) N   2           s(  0.00%)p 1.00(  0.70%)d99.99( 99.30%)
    45. (0.00000) RY*(16) N   2           s(  0.00%)p 0.00(  0.00%)d 1.00(100.00%)
    46. (0.00000) RY*(17) N   2           s(  0.00%)p 1.00(  0.70%)d99.99( 99.30%)
    47. (0.00000) RY*(18) N   2           s(  0.00%)p 0.00(  0.00%)d 1.00(100.00%)
    48. (0.00000) RY*(19) N   2           s(  0.00%)p 0.00(  0.00%)d 1.00(100.00%)
    49. (0.00000) RY*(20) N   2           s(  0.00%)p 0.00(  0.00%)d 1.00(100.00%)
    50. (0.00000) RY*(21) N   2           s(  3.97%)p 7.37( 29.23%)d16.84( 66.80%)
    51. (0.00000) RY*(22) N   2           s(  0.36%)p 0.05(  0.02%)d99.99( 99.62%)
    52. (0.00000) BD*( 1) N   1 - N   2  
                ( 50.00%)   0.7071* N   1 s(  0.00%)p 1.00( 99.30%)d 0.01(  0.70%)
                ( 50.00%)  -0.7071* N   2 s(  0.00%)p 1.00( 99.30%)d 0.01(  0.70%)
    53. (0.00000) BD*( 2) N   1 - N   2  
                ( 50.00%)   0.7071* N   1 s(  0.00%)p 1.00( 99.30%)d 0.01(  0.70%)
                ( 50.00%)  -0.7071* N   2 s(  0.00%)p 1.00( 99.30%)d 0.01(  0.70%)
    54. (0.00000) BD*( 3) N   1 - N   2  
                ( 50.00%)   0.7071* N   1 s( 42.71%)p 1.32( 56.55%)d 0.02(  0.74%)
                ( 50.00%)  -0.7071* N   2 s( 42.71%)p 1.32( 56.55%)d 0.02(  0.74%)


 NHO Directionality and "Bond Bending" (deviations from line of nuclear centers)

         [Thresholds for printing:  angular deviation  >  1.0 degree]
                                    hybrid p-character > 25.0%
                                    orbital occupancy  >  0.10e

                                Line of Centers        Hybrid 1              Hybrid 2
                                ---------------  -------------------   ------------------
                NBO               Theta   Phi    Theta   Phi    Dev    Theta   Phi    Dev
 ========================================================================================
     1. BD (   1) N   1 - N   2   180.0    0.0    90.0    0.0  90.0     90.0    0.0  90.0
     2. BD (   2) N   1 - N   2   180.0    0.0    90.0   90.0  90.0     90.0   90.0  90.0
     6. LP (   1) N   1             --     --      0.0    0.0   --       --     --    --
     7. LP (   1) N   2             --     --    180.0    0.0   --       --     --    --


 Second Order Perturbation Theory Analysis of Fock Matrix in NBO Basis

     Threshold for printing:   0.25 kcal/mol
                                                                              E(2)  E(j)-E(i) F(i,j)
         Donor NBO (i)                     Acceptor NBO (j)                 kcal/mol   a.u.    a.u. 
 ===================================================================================================

 within unit  1
   3. BD (   3) N   1 - N   2        /  8. RY*(   1) N   1                    0.29    2.62    0.035
   3. BD (   3) N   1 - N   2        / 30. RY*(   1) N   2                    0.29    2.62    0.035
   4. CR (   1) N   1                / 30. RY*(   1) N   2                    2.42   16.36    0.252
   4. CR (   1) N   1                / 31. RY*(   2) N   2                    0.44   16.55    0.107
   5. CR (   1) N   2                /  8. RY*(   1) N   1                    2.42   16.36    0.252
   5. CR (   1) N   2                /  9. RY*(   2) N   1                    0.44   16.55    0.107
   6. LP (   1) N   1                / 30. RY*(   1) N   2                    6.66    1.79    0.138
   6. LP (   1) N   1                / 40. RY*(  11) N   2                    0.57    5.08    0.068
   6. LP (   1) N   1                / 41. RY*(  12) N   2                    0.34    1.58    0.029
   7. LP (   1) N   2                /  8. RY*(   1) N   1                    6.66    1.79    0.138
   7. LP (   1) N   2                / 18. RY*(  11) N   1                    0.57    5.08    0.068
   7. LP (   1) N   2                / 19. RY*(  12) N   1                    0.34    1.58    0.029


 Natural Bond Orbitals (Summary):

                                                            Principal Delocalizations
           NBO                        Occupancy    Energy   (geminal,vicinal,remote)
 ====================================================================================
 Molecular unit  1  (N2)
     1. BD (   1) N   1 - N   2          1.00000    -0.62874   
     2. BD (   2) N   1 - N   2          1.00000    -0.62874   
     3. BD (   3) N   1 - N   2          1.00000    -1.68041  8(g),30(g)
     4. CR (   1) N   1                  0.99985   -15.42382  30(v),31(v)
     5. CR (   1) N   2                  0.99985   -15.42382  8(v),9(v)
     6. LP (   1) N   1                  0.99519    -0.85053  30(v),40(v),41(v)
     7. LP (   1) N   2                  0.99519    -0.85053  8(v),18(v),19(v)
     8. RY*(   1) N   1                  0.00491     0.94067   
     9. RY*(   2) N   1                  0.00005     1.12629   
    10. RY*(   3) N   1                  0.00000    35.39662   
    11. RY*(   4) N   1                  0.00000     1.24105   
    12. RY*(   5) N   1                  0.00000     3.72655   
    13. RY*(   6) N   1                  0.00000     0.50079   
    14. RY*(   7) N   1                  0.00000     1.24105   
    15. RY*(   8) N   1                  0.00000     3.72655   
    16. RY*(   9) N   1                  0.00000     0.50079   
    17. RY*(  10) N   1                  0.00000     2.36566   
    18. RY*(  11) N   1                  0.00000     4.22501   
    19. RY*(  12) N   1                  0.00000     0.72509   
    20. RY*(  13) N   1                  0.00000     1.81159   
    21. RY*(  14) N   1                  0.00000     4.55745   
    22. RY*(  15) N   1                  0.00000     2.36116   
    23. RY*(  16) N   1                  0.00000     4.49420   
    24. RY*(  17) N   1                  0.00000     2.36116   
    25. RY*(  18) N   1                  0.00000     4.49420   
    26. RY*(  19) N   1                  0.00000     1.81159   
    27. RY*(  20) N   1                  0.00000     4.55745   
    28. RY*(  21) N   1                  0.00000     2.58567   
    29. RY*(  22) N   1                  0.00000     4.83719   
    30. RY*(   1) N   2                  0.00491     0.94067   
    31. RY*(   2) N   2                  0.00005     1.12629   
    32. RY*(   3) N   2                  0.00000    35.39662   
    33. RY*(   4) N   2                  0.00000     1.24105   
    34. RY*(   5) N   2                  0.00000     3.72655   
    35. RY*(   6) N   2                  0.00000     0.50079   
    36. RY*(   7) N   2                  0.00000     1.24105   
    37. RY*(   8) N   2                  0.00000     3.72655   
    38. RY*(   9) N   2                  0.00000     0.50079   
    39. RY*(  10) N   2                  0.00000     2.36566   
    40. RY*(  11) N   2                  0.00000     4.22501   
    41. RY*(  12) N   2                  0.00000     0.72509   
    42. RY*(  13) N   2                  0.00000     1.81159   
    43. RY*(  14) N   2                  0.00000     4.55745   
    44. RY*(  15) N   2                  0.00000     2.36116   
    45. RY*(  16) N   2                  0.00000     4.49420   
    46. RY*(  17) N   2                  0.00000     2.36116   
    47. RY*(  18) N   2                  0.00000     4.49420   
    48. RY*(  19) N   2                  0.00000     1.81159   
    49. RY*(  20) N   2                  0.00000     4.55745   
    50. RY*(  21) N   2                  0.00000     2.58567   
    51. RY*(  22) N   2                  0.00000     4.83719   
    52. BD*(   1) N   1 - N   2          0.00000     0.27713   
    53. BD*(   2) N   1 - N   2          0.00000     0.27713   
    54. BD*(   3) N   1 - N   2          0.00000     1.34276   
       -------------------------------
              Total Lewis    6.99007  ( 99.8581%)
        Valence non-Lewis    0.00000  (  0.0000%)
        Rydberg non-Lewis    0.00993  (  0.1419%)
       -------------------------------
            Total unit  1    7.00000  (100.0000%)
           Charge unit  1    0.00000
 Leave Link  607 at Fri Sep  6 10:28:26 2024, MaxMem=   104857600 cpu:               0.2 elap:               0.2
 (Enter /Users/asuyarger/Applications/G16/g16/l701.exe)
 ... and contract with generalized density number  0.
 Compute integral second derivatives.
 Leave Link  701 at Fri Sep  6 10:28:26 2024, MaxMem=   104857600 cpu:               0.1 elap:               0.1
 (Enter /Users/asuyarger/Applications/G16/g16/l702.exe)
 L702 exits ... SP integral derivatives will be done elsewhere.
 Leave Link  702 at Fri Sep  6 10:28:26 2024, MaxMem=   104857600 cpu:               0.0 elap:               0.0
 (Enter /Users/asuyarger/Applications/G16/g16/l703.exe)
 Integral derivatives from FoFJK, PRISM(SPDF).
 Compute integral second derivatives, UseDBF=F ICtDFT=           0.
 Calling FoFJK, ICntrl=    100127 FMM=F ISym2X=1 I1Cent= 0 IOpClX= 1 NMat=1 NMatS=1 NMatT=0.
 FoFJK:  IHMeth= 1 ICntrl=  100127 DoSepK=F KAlg= 0 I1Cent=           0 FoldK=F
 IRaf=         0 NMat=       1 IRICut=       1 DoRegI=T DoRafI=F ISym2E= 1 IDoP0=0 IntGTp=1.
 FoFCou: FMM=F IPFlag=           0 FMFlag=      100000 FMFlg1=         800
         NFxFlg=           0 DoJE=F BraDBF=F KetDBF=F FulRan=T
         wScrn=  0.000000 ICntrl=    100127 IOpCl=  1 I1Cent=           0 NGrid=           0
         NMat0=    1 NMatS0=      1 NMatT0=    0 NMatD0=    1 NMtDS0=    0 NMtDT0=    0
 Petite list used in FoFCou.
 Leave Link  703 at Fri Sep  6 10:28:26 2024, MaxMem=   104857600 cpu:               0.3 elap:               0.3
 (Enter /Users/asuyarger/Applications/G16/g16/l716.exe)
 Dipole        = 7.88860905D-31 1.36018802D-33 0.00000000D+00
 Polarizability= 8.11441527D+00 0.00000000D+00 8.11441527D+00
                 8.29371439D-17 0.00000000D+00 1.42422983D+01
 HyperPolar    =-1.43006842D-15-4.76689474D-16-4.76689474D-16
                -1.43006842D-15-4.35206719D-14 4.78636764D-30
                -1.88271144D-14-2.62395161D-15-2.62395161D-15
                 1.07441470D-12
 Full mass-weighted force constant matrix:
 Low frequencies ---   -2.1166   -2.1166   -0.0012   -0.0008   -0.0005 2719.6197
 Diagonal vibrational polarizability:
        0.0000000       0.0000000       0.0000000
 Diagonal vibrational hyperpolarizability:
        0.0000000       0.0000000      -0.0000000
 Harmonic frequencies (cm**-1), IR intensities (KM/Mole), Raman scattering
 activities (A**4/AMU), depolarization ratios for plane and unpolarized
 incident light, reduced masses (AMU), force constants (mDyne/A),
 and normal coordinates:
                      1
                     SGG
 Frequencies --   2719.6197
 Red. masses --     14.0031
 Frc consts  --     61.0225
 IR Inten    --      0.0000
 Raman Activ --     23.6312
 Depolar (P) --      0.1487
 Depolar (U) --      0.2588
  Atom  AN      X      Y      Z
     1   7    -0.00   0.00   0.71
     2   7     0.00   0.00  -0.71

 -------------------
 - Thermochemistry -
 -------------------
 Temperature   298.150 Kelvin.  Pressure   1.00000 Atm.
 Atom     1 has atomic number  7 and mass  14.00307
 Atom     2 has atomic number  7 and mass  14.00307
 Molecular mass:    28.00615 amu.
 Principal axes and moments of inertia in atomic units:
                           1         2         3
     Eigenvalues --    -0.00000  28.44394  28.44394
           X           -0.00000   1.00000  -0.00000
           Y            0.00000   0.00000   1.00000
           Z            1.00000   0.00000  -0.00000
 This molecule is a prolate symmetric top.
 Rotational symmetry number  2.
 Rotational temperature (Kelvin)      3.04507
 Rotational constant (GHZ):          63.449058
 Zero-point vibrational energy      16266.9 (Joules/Mol)
                                    3.88789 (Kcal/Mol)
 Vibrational temperatures:   3912.93
          (Kelvin)
 
 Zero-point correction=                           0.006196 (Hartree/Particle)
 Thermal correction to Energy=                    0.008556
 Thermal correction to Enthalpy=                  0.009500
 Thermal correction to Gibbs Free Energy=        -0.012186
 Sum of electronic and zero-point Energies=           -108.974004
 Sum of electronic and thermal Energies=              -108.971643
 Sum of electronic and thermal Enthalpies=            -108.970699
 Sum of electronic and thermal Free Energies=         -108.992386
 
                     E (Thermal)             CV                S
                      KCal/Mol        Cal/Mol-Kelvin    Cal/Mol-Kelvin
 Total                    5.369              4.969             45.644
 Electronic               0.000              0.000              0.000
 Translational            0.889              2.981             35.924
 Rotational               0.592              1.987              9.719
 Vibrational              3.888              0.001              0.000
                       Q            Log10(Q)             Ln(Q)
 Total Bot       0.402993D+06          5.605297         12.906674
 Total V=0       0.285195D+09          8.455142         19.468683
 Vib (Bot)       0.141305D-02         -2.849844         -6.562007
 Vib (V=0)       0.100000D+01          0.000001          0.000002
 Electronic      0.100000D+01          0.000000          0.000000
 Translational   0.582551D+07          6.765334         15.577757
 Rotational      0.489561D+02          1.689807          3.890924
 ***** Axes restored to original set *****
 -------------------------------------------------------------------
 Center     Atomic                   Forces (Hartrees/Bohr)
 Number     Number              X              Y              Z
 -------------------------------------------------------------------
      1        7           0.000002423    0.000000000   -0.000000000
      2        7          -0.000002423   -0.000000000    0.000000000
 -------------------------------------------------------------------
 Cartesian Forces:  Max     0.000002423 RMS     0.000001399
 Force constants in Cartesian coordinates: 
                1             2             3             4             5 
      1  0.195975D+01
      2  0.000000D+00 -0.118704D-05
      3  0.000000D+00  0.000000D+00 -0.118704D-05
      4 -0.195975D+01  0.000000D+00  0.000000D+00  0.195975D+01
      5  0.000000D+00  0.118704D-05  0.000000D+00  0.000000D+00 -0.118704D-05
      6  0.000000D+00  0.000000D+00  0.118704D-05  0.000000D+00  0.000000D+00
                6 
      6 -0.118704D-05
 FormGI is forming the generalized inverse of G from B-inverse, IUseBI=4.
 Force constants in internal coordinates: 
                1 
      1  0.195975D+01
 Leave Link  716 at Fri Sep  6 10:28:26 2024, MaxMem=   104857600 cpu:               0.0 elap:               0.0
 (Enter /Users/asuyarger/Applications/G16/g16/l103.exe)

 GradGradGradGradGradGradGradGradGradGradGradGradGradGradGradGradGradGrad
 Berny optimization.
 Red2BG is reusing G-inverse.
 Internal  Forces:  Max     0.000002423 RMS     0.000002423
 Search for a local minimum.
 Step number   1 out of a maximum of    2
 All quantities printed in internal units (Hartrees-Bohrs-Radians)
 Second derivative matrix not updated -- analytic derivatives used.
 The second derivative matrix:
                          R1
           R1           1.95975
 ITU=  0
     Eigenvalues ---    1.95975
 Angle between quadratic step and forces=   0.00 degrees.
 Linear search not attempted -- first point.
 Iteration  1 RMS(Cart)=  0.00000087 RMS(Int)=  0.00000000
 ITry= 1 IFail=0 DXMaxC= 6.18D-07 DCOld= 1.00D+10 DXMaxT= 3.00D-01 DXLimC= 3.00D+00 Rises=F
 ClnCor:  largest displacement from symmetrization is 3.79D-23 for atom     1.
 Variable       Old X    -DE/DX   Delta X   Delta X   Delta X     New X
                                 (Linear)    (Quad)   (Total)
    R1        2.01557   0.00000   0.00000   0.00000   0.00000   2.01557
         Item               Value     Threshold  Converged?
 Maximum Force            0.000002     0.000015     YES
 RMS     Force            0.000002     0.000010     YES
 Maximum Displacement     0.000001     0.000060     YES
 RMS     Displacement     0.000001     0.000040     YES
 Predicted change in Energy=-1.498255D-12
 Optimization completed.
    -- Stationary point found.
                           ----------------------------
                           !   Optimized Parameters   !
                           ! (Angstroms and Degrees)  !
 --------------------------                            --------------------------
 ! Name  Definition              Value          Derivative Info.                !
 --------------------------------------------------------------------------------
 ! R1    R(1,2)                  1.0666         -DE/DX =    0.0                 !
 --------------------------------------------------------------------------------
 GradGradGradGradGradGradGradGradGradGradGradGradGradGradGradGradGradGrad

 Leave Link  103 at Fri Sep  6 10:28:26 2024, MaxMem=   104857600 cpu:               0.0 elap:               0.0
 (Enter /Users/asuyarger/Applications/G16/g16/l9999.exe)
 Dipole is zero, so no output in dipole orientation.

 ----------------------------------------------------------------------

 Electric dipole moment (input orientation):
 (Debye = 10**-18 statcoulomb cm , SI units = C m)
                  (au)            (Debye)         (10**-30 SI)
   Tot        0.000000D+00      0.000000D+00      0.000000D+00
   x          0.000000D+00      0.000000D+00      0.000000D+00
   y          0.000000D+00      0.000000D+00      0.000000D+00
   z          0.000000D+00      0.000000D+00      0.000000D+00

 Dipole polarizability, Alpha (input orientation).
 (esu units = cm**3 , SI units = C**2 m**2 J**-1)
 Alpha(0;0):
               (au)            (10**-24 esu)      (10**-40 SI)
   iso        0.101570D+02      0.150512D+01      0.167467D+01
   aniso      0.612788D+01      0.908059D+00      0.101035D+01
   xx         0.142423D+02      0.211049D+01      0.234824D+01
   yx         0.000000D+00      0.000000D+00      0.000000D+00
   yy         0.811442D+01      0.120243D+01      0.133789D+01
   zx         0.000000D+00      0.000000D+00      0.000000D+00
   zy         0.000000D+00      0.000000D+00      0.000000D+00
   zz         0.811442D+01      0.120243D+01      0.133789D+01

 ----------------------------------------------------------------------
 1\1\GINC-JEFFSMACSTUDIO\Freq\UHF\6-311++G(2d,3p)\N2\ROOT\06-Sep-2024\0
 \\#P Geom=AllCheck Guess=TCheck SCRF=Check GenChk UHF/6-311++G(2d,3p) 
 Freq\\N2 uHF 6-311++g(2d,3p) Opt Freq - Full - NBO\\0,1\N,1.0270801594
 ,0.17179023,0.\N,-0.0395142794,0.17179023,0.\\Version=EM64M-G16RevA.03
 \State=1-SGG\HF=-108.9801993\S2=0.\S2-1=0.\S2A=0.\RMSD=1.832e-09\RMSF=
 1.399e-06\ZeroPoint=0.0061957\Thermal=0.0085562\Dipole=0.,0.,0.\Dipole
 Deriv=0.,0.,0.,0.,0.,0.,0.,0.,0.,0.,0.,0.,0.,0.,0.,0.,0.,0.\Polar=14.2
 422983,0.,8.1144153,0.,0.,8.1144153\PolarDeriv=12.0813008,0.,2.5407293
 ,0.,0.,2.5407293,0.,3.0402701,0.,0.,0.,0.,0.,0.,0.,3.0402701,0.,0.,-12
 .0813008,0.,-2.5407293,0.,0.,-2.5407293,0.,-3.0402701,0.,0.,0.,0.,0.,0
 .,0.,-3.0402701,0.,0.\HyperPolar=0.,0.,0.,0.,0.,0.,0.,0.,0.,0.\Quadrup
 ole=-0.6642292,0.3321146,0.3321146,0.,0.,0.\PG=D*H [C*(N1.N1)]\NImag=0
 \\1.95975229,0.,-0.00000119,0.,0.,-0.00000119,-1.95975229,0.,0.,1.9597
 5229,0.,0.00000119,0.,0.,-0.00000119,0.,0.,0.00000119,0.,0.,-0.0000011
 9\\-0.00000242,0.,0.,0.00000242,0.,0.\\\@


 IF YOU PERCEIVE THAT THERE ARE FOUR POSSIBLE WAYS IN
 WHICH A PROCEDURE CAN GO WRONG AND CIRCUMVENT THESE, 
 THEN A FIFTH WAY WILL DEVELOP.

                              -- MURPHY'S TWELFTH LAW
 Job cpu time:       0 days  0 hours  0 minutes  2.6 seconds.
 Elapsed time:       0 days  0 hours  0 minutes  2.4 seconds.
 File lengths (MBytes):  RWF=      6 Int=      0 D2E=      0 Chk=      1 Scr=      1
 Normal termination of Gaussian 16 at Fri Sep  6 10:28:26 2024.
