 Entering Gaussian System, Link 0=g16
 Input=/Users/asuyarger/Downloads/O2_DFT_uB3LPY_apVTZ_Opt_Freq_Full_NBO.gjf
 Output=/Users/asuyarger/Downloads/O2_DFT_uB3LPY_apVTZ_Opt_Freq_Full_NBO.log
 Initial command:
 /Users/asuyarger/Applications/G16/g16/l1.exe "/Users/asuyarger/Applications/G16/scratch/Gau-88793.inp" -scrdir="/Users/asuyarger/Applications/G16/scratch/"
 Entering Link 1 = /Users/asuyarger/Applications/G16/g16/l1.exe PID=     88794.
  
 Copyright (c) 1988,1990,1992,1993,1995,1998,2003,2009,2016,
            Gaussian, Inc.  All Rights Reserved.
  
 This is part of the Gaussian(R) 16 program.  It is based on
 the Gaussian(R) 09 system (copyright 2009, Gaussian, Inc.),
 the Gaussian(R) 03 system (copyright 2003, Gaussian, Inc.),
 the Gaussian(R) 98 system (copyright 1998, Gaussian, Inc.),
 the Gaussian(R) 94 system (copyright 1995, Gaussian, Inc.),
 the Gaussian 92(TM) system (copyright 1992, Gaussian, Inc.),
 the Gaussian 90(TM) system (copyright 1990, Gaussian, Inc.),
 the Gaussian 88(TM) system (copyright 1988, Gaussian, Inc.),
 the Gaussian 86(TM) system (copyright 1986, Carnegie Mellon
 University), and the Gaussian 82(TM) system (copyright 1983,
 Carnegie Mellon University). Gaussian is a federally registered
 trademark of Gaussian, Inc.
  
 This software contains proprietary and confidential information,
 including trade secrets, belonging to Gaussian, Inc.
  
 This software is provided under written license and may be
 used, copied, transmitted, or stored only in accord with that
 written license.
  
 The following legend is applicable only to US Government
 contracts under FAR:
  
                    RESTRICTED RIGHTS LEGEND
  
 Use, reproduction and disclosure by the US Government is
 subject to restrictions as set forth in subparagraphs (a)
 and (c) of the Commercial Computer Software - Restricted
 Rights clause in FAR 52.227-19.
  
 Gaussian, Inc.
 340 Quinnipiac St., Bldg. 40, Wallingford CT 06492
  
  
 ---------------------------------------------------------------
 Warning -- This program may not be used in any manner that
 competes with the business of Gaussian, Inc. or will provide
 assistance to any competitor of Gaussian, Inc.  The licensee
 of this program is prohibited from giving any competitor of
 Gaussian, Inc. access to this program.  By using this program,
 the user acknowledges that Gaussian, Inc. is engaged in the
 business of creating and licensing software in the field of
 computational chemistry and represents and warrants to the
 licensee that it is not a competitor of Gaussian, Inc. and that
 it will not use this program in any manner prohibited above.
 ---------------------------------------------------------------
  

 Cite this work as:
 Gaussian 16, Revision A.03,
 M. J. Frisch, G. W. Trucks, H. B. Schlegel, G. E. Scuseria, 
 M. A. Robb, J. R. Cheeseman, G. Scalmani, V. Barone, 
 G. A. Petersson, H. Nakatsuji, X. Li, M. Caricato, A. V. Marenich, 
 J. Bloino, B. G. Janesko, R. Gomperts, B. Mennucci, H. P. Hratchian, 
 J. V. Ortiz, A. F. Izmaylov, J. L. Sonnenberg, D. Williams-Young, 
 F. Ding, F. Lipparini, F. Egidi, J. Goings, B. Peng, A. Petrone, 
 T. Henderson, D. Ranasinghe, V. G. Zakrzewski, J. Gao, N. Rega, 
 G. Zheng, W. Liang, M. Hada, M. Ehara, K. Toyota, R. Fukuda, 
 J. Hasegawa, M. Ishida, T. Nakajima, Y. Honda, O. Kitao, H. Nakai, 
 T. Vreven, K. Throssell, J. A. Montgomery, Jr., J. E. Peralta, 
 F. Ogliaro, M. J. Bearpark, J. J. Heyd, E. N. Brothers, K. N. Kudin, 
 V. N. Staroverov, T. A. Keith, R. Kobayashi, J. Normand, 
 K. Raghavachari, A. P. Rendell, J. C. Burant, S. S. Iyengar, 
 J. Tomasi, M. Cossi, J. M. Millam, M. Klene, C. Adamo, R. Cammi, 
 J. W. Ochterski, R. L. Martin, K. Morokuma, O. Farkas, 
 J. B. Foresman, and D. J. Fox, Gaussian, Inc., Wallingford CT, 2016.
 
 ******************************************
 Gaussian 16:  EM64M-G16RevA.03 25-Dec-2016
                 6-Sep-2024 
 ******************************************
 %chk=O2_DFT_uB3LPY_apVTZ_Opt_Freq_Full_NBO.chk
 ----------------------------------------------------------------------
 #p opt=tight freq=raman ub3lyp/aug-cc-pvtz guess=save pop=(hirshfeld,f
 ull,nbo) geom=connectivity polar
 ----------------------------------------------------------------------
 1/7=10,18=20,19=15,26=3,38=1,57=2/1,3;
 2/9=110,12=2,17=6,18=5,40=1/2;
 3/5=16,6=1,7=10,11=2,25=1,30=1,71=1,74=-5,116=2/1,2,3;
 4//1;
 5/5=2,38=5,98=1/2;
 6/7=3,28=1,40=1,79=1/1,7;
 7//1,2,3,16;
 1/7=10,18=20,19=15,26=3/3(2);
 2/9=110/2;
 99//99;
 2/9=110/2;
 3/5=16,6=1,7=10,11=2,25=1,30=1,71=1,74=-5,116=2/1,2,3;
 4/5=5,16=3,69=1/1;
 5/5=2,38=5,98=1/2;
 7//1,2,3,16;
 1/7=10,18=20,19=15,26=3/3(-5);
 2/9=110/2;
 6/7=3,19=2,28=1,40=1,79=1/1,7;
 99/9=1/99;
 Leave Link    1 at Fri Sep  6 10:25:47 2024, MaxMem=           0 cpu:               0.0 elap:               0.0
 (Enter /Users/asuyarger/Applications/G16/g16/l101.exe)
 -----------------------------------------------
 O2 DFT uB3LPY aug-cc-pVTZ Opt Freq - Full - NBO
 -----------------------------------------------
 Symbolic Z-matrix:
 Charge =  0 Multiplicity = 1
 O                    -0.53345   0.31646   0. 
 O                    -1.69505   0.31646   0. 
 
 ITRead=  0  0
 MicOpt= -1 -1
 NAtoms=      2 NQM=        2 NQMF=       0 NMMI=      0 NMMIF=      0
                NMic=       0 NMicF=      0.
                    Isotopes and Nuclear Properties:
 (Nuclear quadrupole moments (NQMom) in fm**2, nuclear magnetic moments (NMagM)
  in nuclear magnetons)

  Atom         1           2
 IAtWgt=          16          16
 AtmWgt=  15.9949146  15.9949146
 NucSpn=           0           0
 AtZEff=  -0.0000000  -0.0000000
 NQMom=    0.0000000   0.0000000
 NMagM=    0.0000000   0.0000000
 AtZNuc=   8.0000000   8.0000000
 Leave Link  101 at Fri Sep  6 10:25:47 2024, MaxMem=   104857600 cpu:               0.1 elap:               0.1
 (Enter /Users/asuyarger/Applications/G16/g16/l103.exe)

 GradGradGradGradGradGradGradGradGradGradGradGradGradGradGradGradGradGrad
 Berny optimization.
 Initialization pass.
                           ----------------------------
                           !    Initial Parameters    !
                           ! (Angstroms and Degrees)  !
 --------------------------                            --------------------------
 ! Name  Definition              Value          Derivative Info.                !
 --------------------------------------------------------------------------------
 ! R1    R(1,2)                  1.1616         estimate D2E/DX2                !
 --------------------------------------------------------------------------------
 Trust Radius=3.00D-01 FncErr=1.00D-07 GrdErr=1.00D-06 EigMax=2.50D+02 EigMin=1.00D-04
 Number of steps in this run=     20 maximum allowed number of steps=    100.
 GradGradGradGradGradGradGradGradGradGradGradGradGradGradGradGradGradGrad

 Leave Link  103 at Fri Sep  6 10:25:47 2024, MaxMem=   104857600 cpu:               0.0 elap:               0.0
 (Enter /Users/asuyarger/Applications/G16/g16/l202.exe)
                          Input orientation:                          
 ---------------------------------------------------------------------
 Center     Atomic      Atomic             Coordinates (Angstroms)
 Number     Number       Type             X           Y           Z
 ---------------------------------------------------------------------
      1          8           0       -0.533454    0.316456    0.000000
      2          8           0       -1.695054    0.316456    0.000000
 ---------------------------------------------------------------------
 Stoichiometry    O2
 Framework group  D*H[C*(O.O)]
 Deg. of freedom     1
 Full point group                 D*H     NOp   8
 Largest Abelian subgroup         D2H     NOp   8
 Largest concise Abelian subgroup C2      NOp   2
                         Standard orientation:                         
 ---------------------------------------------------------------------
 Center     Atomic      Atomic             Coordinates (Angstroms)
 Number     Number       Type             X           Y           Z
 ---------------------------------------------------------------------
      1          8           0        0.000000    0.000000    0.580800
      2          8           0        0.000000    0.000000   -0.580800
 ---------------------------------------------------------------------
 Rotational constants (GHZ):           0.0000000          46.8330090          46.8330090
 Leave Link  202 at Fri Sep  6 10:25:47 2024, MaxMem=   104857600 cpu:               0.0 elap:               0.0
 (Enter /Users/asuyarger/Applications/G16/g16/l301.exe)
 Standard basis: Aug-CC-pVTZ (5D, 7F)
 Ernie: Thresh=  0.10000D-02 Tol=  0.10000D-05 Strict=F.
 Ernie:  6 primitive shells out of 60 were deleted.
 There are    24 symmetry adapted cartesian basis functions of AG  symmetry.
 There are     5 symmetry adapted cartesian basis functions of B1G symmetry.
 There are    13 symmetry adapted cartesian basis functions of B2G symmetry.
 There are    13 symmetry adapted cartesian basis functions of B3G symmetry.
 There are     5 symmetry adapted cartesian basis functions of AU  symmetry.
 There are    24 symmetry adapted cartesian basis functions of B1U symmetry.
 There are    13 symmetry adapted cartesian basis functions of B2U symmetry.
 There are    13 symmetry adapted cartesian basis functions of B3U symmetry.
 There are    19 symmetry adapted basis functions of AG  symmetry.
 There are     5 symmetry adapted basis functions of B1G symmetry.
 There are    11 symmetry adapted basis functions of B2G symmetry.
 There are    11 symmetry adapted basis functions of B3G symmetry.
 There are     5 symmetry adapted basis functions of AU  symmetry.
 There are    19 symmetry adapted basis functions of B1U symmetry.
 There are    11 symmetry adapted basis functions of B2U symmetry.
 There are    11 symmetry adapted basis functions of B3U symmetry.
    92 basis functions,   144 primitive gaussians,   110 cartesian basis functions
     8 alpha electrons        8 beta electrons
       nuclear repulsion energy        29.1557691967 Hartrees.
 IExCor=  402 DFT=T Ex+Corr=B3LYP ExCW=0 ScaHFX=  0.200000
 ScaDFX=  0.800000  0.720000  1.000000  0.810000 ScalE2=  1.000000  1.000000
 IRadAn=      5 IRanWt=     -1 IRanGd=            0 ICorTp=0 IEmpDi=  4
 NAtoms=    2 NActive=    2 NUniq=    1 SFac= 4.00D+00 NAtFMM=   60 NAOKFM=F Big=F
 Integral buffers will be    131072 words long.
 Raffenetti 2 integral format.
 Two-electron integral symmetry is turned on.
 Leave Link  301 at Fri Sep  6 10:25:47 2024, MaxMem=   104857600 cpu:               0.0 elap:               0.0
 (Enter /Users/asuyarger/Applications/G16/g16/l302.exe)
 NPDir=0 NMtPBC=     1 NCelOv=     1 NCel=       1 NClECP=     1 NCelD=      1
         NCelK=      1 NCelE2=     1 NClLst=     1 CellRange=     0.0.
 One-electron integrals computed using PRISM.
 One-electron integral symmetry used in STVInt
 NBasis=    92 RedAO= T EigKep=  2.08D-04  NBF=    19     5    11    11     5    19    11    11
 NBsUse=    92 1.00D-06 EigRej= -1.00D+00 NBFU=    19     5    11    11     5    19    11    11
 Precomputing XC quadrature grid using
 IXCGrd= 4 IRadAn=           5 IRanWt=          -1 IRanGd=           0 AccXCQ= 0.00D+00.
 Generated NRdTot=       0 NPtTot=           0 NUsed=           0 NTot=          32
 NSgBfM=   110   110   110   110   110 MxSgAt=     2 MxSgA2=     2.
 Leave Link  302 at Fri Sep  6 10:25:47 2024, MaxMem=   104857600 cpu:               0.1 elap:               0.1
 (Enter /Users/asuyarger/Applications/G16/g16/l303.exe)
 DipDrv:  MaxL=1.
 Leave Link  303 at Fri Sep  6 10:25:47 2024, MaxMem=   104857600 cpu:               0.0 elap:               0.0
 (Enter /Users/asuyarger/Applications/G16/g16/l401.exe)
 ExpMin= 5.97D-02 ExpMax= 1.53D+04 ExpMxC= 5.22D+02 IAcc=3 IRadAn=         5 AccDes= 0.00D+00
 Harris functional with IExCor=  402 and IRadAn=       5 diagonalized for initial guess.
 HarFok:  IExCor=  402 AccDes= 0.00D+00 IRadAn=         5 IDoV= 1 UseB2=F ITyADJ=14
 ICtDFT=  3500011 ScaDFX=  1.000000  1.000000  1.000000  1.000000
 FoFCou: FMM=F IPFlag=           0 FMFlag=      100000 FMFlg1=           0
         NFxFlg=           0 DoJE=T BraDBF=F KetDBF=T FulRan=T
         wScrn=  0.000000 ICntrl=       500 IOpCl=  0 I1Cent=   200000004 NGrid=           0
         NMat0=    1 NMatS0=      1 NMatT0=    0 NMatD0=    1 NMtDS0=    0 NMtDT0=    0
 Petite list used in FoFCou.
 Harris En= -150.326188381753    
 JPrj=0 DoOrth=F DoCkMO=F.
 Initial guess orbital symmetries:
 Alpha Orbitals:
       Occupied  (SGG) (SGU) (SGG) (SGU) (SGG) (PIU) (PIU) (PIG)
       Virtual   (PIG) (SGU) (SGG) (PIU) (PIU) (SGG) (PIG) (PIG)
                 (SGU) (SGU) (DLTG) (DLTG) (SGG) (PIU) (PIU) (PIG)
                 (PIG) (DLTU) (DLTU) (PIU) (PIU) (SGU) (SGG) (SGU)
                 (PIG) (PIG) (SGG) (DLTG) (DLTG) (PHIU) (PHIU)
                 (PIU) (PIU) (DLTU) (DLTU) (SGG) (DLTG) (DLTG)
                 (PHIG) (PHIG) (SGU) (PIG) (PIG) (SGU) (PIU) (PIU)
                 (DLTU) (DLTU) (SGU) (PIG) (PIG) (SGG) (PIU) (PIU)
                 (SGG) (PIG) (PIG) (PIU) (PIU) (SGG) (DLTG) (DLTG)
                 (SGU) (PHIU) (PHIU) (SGU) (PHIG) (PHIG) (DLTG)
                 (DLTG) (DLTU) (DLTU) (DLTU) (DLTU) (PIU) (PIU)
                 (PIG) (PIG) (PIG) (PIG) (SGG) (SGU) (SGG) (SGU)
 Beta  Orbitals:
       Occupied  (SGG) (SGU) (SGG) (SGU) (SGG) (PIU) (PIU) (PIG)
       Virtual   (PIG) (SGU) (SGG) (PIU) (PIU) (SGG) (PIG) (PIG)
                 (SGU) (SGU) (DLTG) (DLTG) (SGG) (PIU) (PIU) (PIG)
                 (PIG) (DLTU) (DLTU) (PIU) (PIU) (SGU) (SGG) (SGU)
                 (PIG) (PIG) (SGG) (DLTG) (DLTG) (PHIU) (PHIU)
                 (PIU) (PIU) (DLTU) (DLTU) (SGG) (DLTG) (DLTG)
                 (PHIG) (PHIG) (SGU) (PIG) (PIG) (SGU) (PIU) (PIU)
                 (DLTU) (DLTU) (SGU) (PIG) (PIG) (SGG) (PIU) (PIU)
                 (SGG) (PIG) (PIG) (PIU) (PIU) (SGG) (DLTG) (DLTG)
                 (SGU) (PHIU) (PHIU) (SGU) (PHIG) (PHIG) (DLTG)
                 (DLTG) (DLTU) (DLTU) (DLTU) (DLTU) (PIU) (PIU)
                 (PIG) (PIG) (PIG) (PIG) (SGG) (SGU) (SGG) (SGU)
 Initial guess <Sx>= 0.0000 <Sy>= 0.0000 <Sz>= 0.0000 <S**2>= 0.0000 S= 0.0000
 Leave Link  401 at Fri Sep  6 10:25:47 2024, MaxMem=   104857600 cpu:               0.1 elap:               0.1
 (Enter /Users/asuyarger/Applications/G16/g16/l502.exe)
 Keep R1 and R2 ints in memory in symmetry-blocked form, NReq=11140354.
 FoFCou: FMM=F IPFlag=           0 FMFlag=           0 FMFlg1=           0
         NFxFlg=           0 DoJE=F BraDBF=F KetDBF=F FulRan=T
         wScrn=  0.000000 ICntrl=       600 IOpCl=  0 I1Cent=           0 NGrid=           0
         NMat0=    1 NMatS0=   4278 NMatT0=    0 NMatD0=    1 NMtDS0=    0 NMtDT0=    0
 Petite list used in FoFCou.
 UHF open shell SCF:
 Using DIIS extrapolation, IDIIS=  1040.
 NGot=   104857600 LenX=   102475162 LenY=   102462621
 Requested convergence on RMS density matrix=1.00D-08 within 128 cycles.
 Requested convergence on MAX density matrix=1.00D-06.
 Requested convergence on             energy=1.00D-06.
 No special actions if energy rises.
 Integral accuracy reduced to 1.0D-05 until final iterations.

 Cycle   1  Pass 0  IDiag  1:
 E= -150.311522447085    
 DIIS: error= 1.62D-02 at cycle   1 NSaved=   1.
 NSaved= 1 IEnMin= 1 EnMin= -150.311522447085     IErMin= 1 ErrMin= 1.62D-02
 ErrMax= 1.62D-02  0.00D+00 EMaxC= 1.00D-01 BMatC= 7.60D-02 BMatP= 7.60D-02
 IDIUse=3 WtCom= 8.38D-01 WtEn= 1.62D-01
 Coeff-Com:  0.100D+01
 Coeff-En:   0.100D+01
 Coeff:      0.100D+01
 Gap=     0.070 Goal=   None    Shift=    0.000
 Gap=     0.070 Goal=   None    Shift=    0.000
 GapD=    0.070 DampG=0.500 DampE=0.500 DampFc=0.2500 IDamp=-1.
 Damping current iteration by 2.50D-01
 RMSDP=9.51D-04 MaxDP=1.39D-02              OVMax= 3.03D-02

 Cycle   2  Pass 0  IDiag  1:
 E= -150.314170052799     Delta-E=       -0.002647605714 Rises=F Damp=T
 DIIS: error= 1.05D-02 at cycle   2 NSaved=   2.
 NSaved= 2 IEnMin= 2 EnMin= -150.314170052799     IErMin= 2 ErrMin= 1.05D-02
 ErrMax= 1.05D-02  0.00D+00 EMaxC= 1.00D-01 BMatC= 3.58D-02 BMatP= 7.60D-02
 IDIUse=3 WtCom= 8.95D-01 WtEn= 1.05D-01
 Coeff-Com: -0.207D+01 0.307D+01
 Coeff-En:   0.000D+00 0.100D+01
 Coeff:     -0.185D+01 0.285D+01
 Gap=     0.072 Goal=   None    Shift=    0.000
 Gap=     0.072 Goal=   None    Shift=    0.000
 RMSDP=4.48D-04 MaxDP=7.80D-03 DE=-2.65D-03 OVMax= 9.88D-03

 Cycle   3  Pass 0  IDiag  1:
 E= -150.320383638541     Delta-E=       -0.006213585743 Rises=F Damp=F
 DIIS: error= 6.99D-04 at cycle   3 NSaved=   3.
 NSaved= 3 IEnMin= 3 EnMin= -150.320383638541     IErMin= 3 ErrMin= 6.99D-04
 ErrMax= 6.99D-04  0.00D+00 EMaxC= 1.00D-01 BMatC= 9.83D-05 BMatP= 3.58D-02
 IDIUse=3 WtCom= 9.93D-01 WtEn= 6.99D-03
 Coeff-Com: -0.252D+00 0.363D+00 0.889D+00
 Coeff-En:   0.000D+00 0.000D+00 0.100D+01
 Coeff:     -0.250D+00 0.360D+00 0.890D+00
 Gap=     0.073 Goal=   None    Shift=    0.000
 Gap=     0.073 Goal=   None    Shift=    0.000
 RMSDP=4.93D-05 MaxDP=7.11D-04 DE=-6.21D-03 OVMax= 1.95D-03

 Cycle   4  Pass 0  IDiag  1:
 E= -150.320392351098     Delta-E=       -0.000008712557 Rises=F Damp=F
 DIIS: error= 5.51D-04 at cycle   4 NSaved=   4.
 NSaved= 4 IEnMin= 4 EnMin= -150.320392351098     IErMin= 4 ErrMin= 5.51D-04
 ErrMax= 5.51D-04  0.00D+00 EMaxC= 1.00D-01 BMatC= 3.80D-05 BMatP= 9.83D-05
 IDIUse=3 WtCom= 9.94D-01 WtEn= 5.51D-03
 Coeff-Com: -0.510D-01 0.696D-01 0.400D+00 0.581D+00
 Coeff-En:   0.000D+00 0.000D+00 0.262D+00 0.738D+00
 Coeff:     -0.507D-01 0.693D-01 0.399D+00 0.582D+00
 Gap=     0.073 Goal=   None    Shift=    0.000
 Gap=     0.073 Goal=   None    Shift=    0.000
 RMSDP=2.08D-05 MaxDP=3.59D-04 DE=-8.71D-06 OVMax= 7.72D-04

 Cycle   5  Pass 0  IDiag  1:
 E= -150.320398445199     Delta-E=       -0.000006094101 Rises=F Damp=F
 DIIS: error= 1.99D-05 at cycle   5 NSaved=   5.
 NSaved= 5 IEnMin= 5 EnMin= -150.320398445199     IErMin= 5 ErrMin= 1.99D-05
 ErrMax= 1.99D-05  0.00D+00 EMaxC= 1.00D-01 BMatC= 5.05D-08 BMatP= 3.80D-05
 IDIUse=1 WtCom= 1.00D+00 WtEn= 0.00D+00
 Coeff-Com: -0.539D-03 0.561D-03-0.475D-03 0.334D-01 0.967D+00
 Coeff:     -0.539D-03 0.561D-03-0.475D-03 0.334D-01 0.967D+00
 Gap=     0.073 Goal=   None    Shift=    0.000
 Gap=     0.073 Goal=   None    Shift=    0.000
 RMSDP=9.07D-07 MaxDP=1.40D-05 DE=-6.09D-06 OVMax= 3.28D-05

 Initial convergence to 1.0D-05 achieved.  Increase integral accuracy.
 Cycle   6  Pass 1  IDiag  1:
 E= -150.320393416149     Delta-E=        0.000005029050 Rises=F Damp=F
 DIIS: error= 4.63D-06 at cycle   1 NSaved=   1.
 NSaved= 1 IEnMin= 1 EnMin= -150.320393416149     IErMin= 1 ErrMin= 4.63D-06
 ErrMax= 4.63D-06  0.00D+00 EMaxC= 1.00D-01 BMatC= 1.30D-09 BMatP= 1.30D-09
 IDIUse=1 WtCom= 1.00D+00 WtEn= 0.00D+00
 Coeff-Com:  0.100D+01
 Coeff:      0.100D+01
 Gap=     0.073 Goal=   None    Shift=    0.000
 Gap=     0.073 Goal=   None    Shift=    0.000
 RMSDP=9.07D-07 MaxDP=1.40D-05 DE= 5.03D-06 OVMax= 9.76D-06

 Cycle   7  Pass 1  IDiag  1:
 E= -150.320393416474     Delta-E=       -0.000000000325 Rises=F Damp=F
 DIIS: error= 3.52D-07 at cycle   2 NSaved=   2.
 NSaved= 2 IEnMin= 2 EnMin= -150.320393416474     IErMin= 2 ErrMin= 3.52D-07
 ErrMax= 3.52D-07  0.00D+00 EMaxC= 1.00D-01 BMatC= 1.53D-11 BMatP= 1.30D-09
 IDIUse=1 WtCom= 1.00D+00 WtEn= 0.00D+00
 Coeff-Com: -0.221D-01 0.102D+01
 Coeff:     -0.221D-01 0.102D+01
 Gap=     0.073 Goal=   None    Shift=    0.000
 Gap=     0.073 Goal=   None    Shift=    0.000
 RMSDP=4.68D-08 MaxDP=8.35D-07 DE=-3.25D-10 OVMax= 8.21D-07

 Cycle   8  Pass 1  IDiag  1:
 E= -150.320393416475     Delta-E=       -0.000000000001 Rises=F Damp=F
 DIIS: error= 2.99D-07 at cycle   3 NSaved=   3.
 NSaved= 3 IEnMin= 3 EnMin= -150.320393416475     IErMin= 3 ErrMin= 2.99D-07
 ErrMax= 2.99D-07  0.00D+00 EMaxC= 1.00D-01 BMatC= 1.15D-11 BMatP= 1.53D-11
 IDIUse=1 WtCom= 1.00D+00 WtEn= 0.00D+00
 Coeff-Com: -0.188D-01 0.484D+00 0.535D+00
 Coeff:     -0.188D-01 0.484D+00 0.535D+00
 Gap=     0.073 Goal=   None    Shift=    0.000
 Gap=     0.073 Goal=   None    Shift=    0.000
 RMSDP=1.22D-08 MaxDP=2.03D-07 DE=-1.36D-12 OVMax= 4.44D-07

 Cycle   9  Pass 1  IDiag  1:
 E= -150.320393416477     Delta-E=       -0.000000000002 Rises=F Damp=F
 DIIS: error= 8.39D-09 at cycle   4 NSaved=   4.
 NSaved= 4 IEnMin= 4 EnMin= -150.320393416477     IErMin= 4 ErrMin= 8.39D-09
 ErrMax= 8.39D-09  0.00D+00 EMaxC= 1.00D-01 BMatC= 1.09D-14 BMatP= 1.15D-11
 IDIUse=1 WtCom= 1.00D+00 WtEn= 0.00D+00
 Coeff-Com: -0.134D-02 0.289D-01 0.440D-01 0.928D+00
 Coeff:     -0.134D-02 0.289D-01 0.440D-01 0.928D+00
 Gap=     0.073 Goal=   None    Shift=    0.000
 Gap=     0.073 Goal=   None    Shift=    0.000
 RMSDP=1.18D-09 MaxDP=2.42D-08 DE=-1.85D-12 OVMax= 1.80D-08

 SCF Done:  E(UB3LYP) =  -150.320393416     A.U. after    9 cycles
            NFock=  9  Conv=0.12D-08     -V/T= 2.0044
 <Sx>= 0.0000 <Sy>= 0.0000 <Sz>= 0.0000 <S**2>= 0.0000 S= 0.0000
 <L.S>= 0.000000000000E+00
 KE= 1.496620594191D+02 PE=-4.134896219883D+02 EE= 8.435139995610D+01
 Annihilation of the first spin contaminant:
 S**2 before annihilation     0.0000,   after     0.0000
 Leave Link  502 at Fri Sep  6 10:25:48 2024, MaxMem=   104857600 cpu:               1.1 elap:               1.1
 (Enter /Users/asuyarger/Applications/G16/g16/l601.exe)
 Copying SCF densities to generalized density rwf, IOpCl= 1 IROHF=0.

 **********************************************************************

            Population analysis using the SCF density.

 **********************************************************************

 Orbital symmetries:
 Alpha Orbitals:
       Occupied  (SGG) (SGU) (SGG) (SGU) (SGG) (PIU) (PIU) (PIG)
       Virtual   (PIG) (SGU) (SGG) (PIU) (PIU) (SGG) (PIG) (PIG)
                 (SGU) (SGU) (?A) (?A) (?A) (PIU) (PIU) (?B) (?B)
                 (PIG) (PIG) (PIU) (?B) (PIU) (SGG) (SGU) (PIG)
                 (PIG) (?C) (?C) (?C) (?D) (?D) (?D) (?D) (?E)
                 (?E) (?F) (?F) (?F) (?G) (?G) (?G) (?E) (?G) (SGU)
                 (PIU) (PIU) (?H) (?H) (?H) (PIG) (PIG) (SGG) (PIU)
                 (PIU) (SGG) (PIG) (PIG) (PIU) (PIU) (?H) (?H)
                 (?H) (SGU) (PHIU) (PHIU) (PHIG) (PHIG) (SGU) (DLTG)
                 (DLTG) (DLTU) (DLTU) (DLTU) (DLTU) (PIU) (PIU)
                 (PIG) (PIG) (PIG) (PIG) (SGG) (SGU) (SGG) (SGU)
 Beta  Orbitals:
       Occupied  (SGG) (SGU) (SGG) (SGU) (SGG) (PIU) (PIU) (PIG)
       Virtual   (PIG) (SGU) (SGG) (PIU) (PIU) (SGG) (PIG) (PIG)
                 (SGU) (SGU) (?A) (?A) (?A) (PIU) (PIU) (?B) (?B)
                 (PIG) (PIG) (PIU) (?B) (PIU) (SGG) (SGU) (PIG)
                 (PIG) (?C) (?C) (?C) (?D) (?D) (?D) (?D) (?E)
                 (?E) (?F) (?F) (?F) (?G) (?G) (?G) (?E) (?G) (SGU)
                 (PIU) (PIU) (?H) (?H) (?H) (PIG) (PIG) (SGG) (PIU)
                 (PIU) (SGG) (PIG) (PIG) (PIU) (PIU) (?H) (?H)
                 (?H) (SGU) (PHIU) (PHIU) (PHIG) (PHIG) (SGU) (DLTG)
                 (DLTG) (DLTU) (DLTU) (DLTU) (DLTU) (PIU) (PIU)
                 (PIG) (PIG) (PIG) (PIG) (SGG) (SGU) (SGG) (SGU)
 Unable to determine electronic state:  partially filled degenerate orbitals.
 Alpha  occ. eigenvalues --  -19.29177 -19.29139  -1.33500  -0.79758  -0.55547
 Alpha  occ. eigenvalues --   -0.55070  -0.54379  -0.25011
 Alpha virt. eigenvalues --   -0.17696   0.05105   0.05988   0.08275   0.08676
 Alpha virt. eigenvalues --    0.13575   0.14528   0.14839   0.23978   0.32819
 Alpha virt. eigenvalues --    0.42103   0.42105   0.52701   0.60421   0.61395
 Alpha virt. eigenvalues --    0.65518   0.65539   0.66213   0.66603   0.69004
 Alpha virt. eigenvalues --    0.70637   0.70845   0.77719   0.81187   0.98567
 Alpha virt. eigenvalues --    0.99586   1.35079   1.59265   1.59461   1.62867
 Alpha virt. eigenvalues --    1.62867   1.64657   1.67245   1.91611   1.91716
 Alpha virt. eigenvalues --    1.93703   1.96792   1.97337   2.02927   2.02932
 Alpha virt. eigenvalues --    2.07704   2.07870   2.09441   2.30009   2.44644
 Alpha virt. eigenvalues --    2.46584   2.61047   2.61234   2.69328   2.73953
 Alpha virt. eigenvalues --    2.76142   3.16592   3.61219   3.63476   4.02844
 Alpha virt. eigenvalues --    4.56586   4.59397   5.47040   5.50254   5.53094
 Alpha virt. eigenvalues --    5.57896   5.58627   5.80420   5.84477   5.84502
 Alpha virt. eigenvalues --    6.06911   6.06944   6.09809   6.37239   6.37642
 Alpha virt. eigenvalues --    6.50763   6.51129   6.58423   6.58708   6.70369
 Alpha virt. eigenvalues --    6.73260   6.91356   6.93941   7.42354   7.45728
 Alpha virt. eigenvalues --    7.52323   7.83112  12.28098  14.66749
  Beta  occ. eigenvalues --  -19.29177 -19.29139  -1.33500  -0.79758  -0.55547
  Beta  occ. eigenvalues --   -0.55070  -0.54379  -0.25011
  Beta virt. eigenvalues --   -0.17696   0.05105   0.05988   0.08275   0.08676
  Beta virt. eigenvalues --    0.13575   0.14528   0.14839   0.23978   0.32819
  Beta virt. eigenvalues --    0.42103   0.42105   0.52701   0.60421   0.61395
  Beta virt. eigenvalues --    0.65518   0.65539   0.66213   0.66603   0.69004
  Beta virt. eigenvalues --    0.70637   0.70845   0.77719   0.81187   0.98567
  Beta virt. eigenvalues --    0.99586   1.35079   1.59265   1.59461   1.62867
  Beta virt. eigenvalues --    1.62867   1.64657   1.67245   1.91611   1.91716
  Beta virt. eigenvalues --    1.93703   1.96792   1.97337   2.02927   2.02932
  Beta virt. eigenvalues --    2.07704   2.07870   2.09441   2.30009   2.44644
  Beta virt. eigenvalues --    2.46584   2.61047   2.61234   2.69328   2.73953
  Beta virt. eigenvalues --    2.76142   3.16592   3.61219   3.63476   4.02844
  Beta virt. eigenvalues --    4.56586   4.59397   5.47040   5.50254   5.53094
  Beta virt. eigenvalues --    5.57896   5.58627   5.80420   5.84477   5.84502
  Beta virt. eigenvalues --    6.06911   6.06944   6.09809   6.37239   6.37642
  Beta virt. eigenvalues --    6.50763   6.51129   6.58423   6.58708   6.70369
  Beta virt. eigenvalues --    6.73260   6.91356   6.93941   7.42354   7.45728
  Beta virt. eigenvalues --    7.52323   7.83112  12.28098  14.66749
     Alpha Molecular Orbital Coefficients:
                           1         2         3         4         5
                       (SGG)--O  (SGU)--O  (SGG)--O  (SGU)--O  (SGG)--O
     Eigenvalues --   -19.29177 -19.29139  -1.33500  -0.79758  -0.55547
   1 1   O  1S          0.68831   0.68794  -0.14993  -0.15866  -0.05740
   2        2S         -0.00592  -0.00856   0.33841   0.38621   0.13917
   3        3S          0.03627   0.03633   0.10150   0.12063   0.04407
   4        4S          0.00207  -0.00263   0.14159   0.42947   0.20789
   5        5S         -0.00077  -0.00608  -0.00005   0.09198   0.03416
   6        6PX         0.00000   0.00000   0.00000   0.00000   0.00000
   7        6PY         0.00000   0.00000   0.00000   0.00000   0.00000
   8        6PZ        -0.00154  -0.00130  -0.10994   0.08680   0.26561
   9        7PX         0.00000   0.00000   0.00000   0.00000   0.00000
  10        7PY         0.00000   0.00000   0.00000   0.00000   0.00000
  11        7PZ        -0.00030   0.00182  -0.12186   0.08459   0.30260
  12        8PX         0.00000   0.00000   0.00000   0.00000   0.00000
  13        8PY         0.00000   0.00000   0.00000   0.00000   0.00000
  14        8PZ         0.00182   0.00309  -0.02498  -0.03051   0.15723
  15        9PX         0.00000   0.00000   0.00000   0.00000   0.00000
  16        9PY         0.00000   0.00000   0.00000   0.00000   0.00000
  17        9PZ         0.00020   0.00122   0.00344  -0.01255   0.00438
  18       10D 0        0.00053   0.00009   0.01126  -0.00419  -0.01189
  19       10D+1        0.00000   0.00000   0.00000   0.00000   0.00000
  20       10D-1        0.00000   0.00000   0.00000   0.00000   0.00000
  21       10D+2       -0.00004  -0.00003  -0.00106  -0.00113  -0.00052
  22       10D-2        0.00000   0.00000   0.00000   0.00000   0.00000
  23       11D 0       -0.00096  -0.00076   0.02072  -0.00388  -0.01895
  24       11D+1        0.00000   0.00000   0.00000   0.00000   0.00000
  25       11D-1        0.00000   0.00000   0.00000   0.00000   0.00000
  26       11D+2        0.00004   0.00006  -0.00377  -0.00391  -0.00172
  27       11D-2        0.00000   0.00000   0.00000   0.00000   0.00000
  28       12D 0       -0.00098  -0.00073   0.00139   0.01391  -0.00968
  29       12D+1        0.00000   0.00000   0.00000   0.00000   0.00000
  30       12D-1        0.00000   0.00000   0.00000   0.00000   0.00000
  31       12D+2       -0.00001  -0.00001  -0.00015   0.00006  -0.00089
  32       12D-2        0.00000   0.00000   0.00000   0.00000   0.00000
  33       13F 0        0.00015  -0.00015  -0.00651   0.00002   0.00656
  34       13F+1        0.00000   0.00000   0.00000   0.00000   0.00000
  35       13F-1        0.00000   0.00000   0.00000   0.00000   0.00000
  36       13F+2        0.00000  -0.00000   0.00093  -0.00059  -0.00165
  37       13F-2        0.00000   0.00000   0.00000   0.00000   0.00000
  38       13F+3        0.00000   0.00000   0.00000   0.00000   0.00000
  39       13F-3        0.00000   0.00000   0.00000   0.00000   0.00000
  40       14F 0        0.00086   0.00012  -0.00220  -0.00025   0.00066
  41       14F+1        0.00000   0.00000   0.00000   0.00000   0.00000
  42       14F-1        0.00000   0.00000   0.00000   0.00000   0.00000
  43       14F+2        0.00001  -0.00001   0.00094   0.00013  -0.00087
  44       14F-2        0.00000   0.00000   0.00000   0.00000   0.00000
  45       14F+3        0.00000   0.00000   0.00000   0.00000   0.00000
  46       14F-3        0.00000   0.00000   0.00000   0.00000   0.00000
  47 2   O  1S          0.68831  -0.68794  -0.14993   0.15866  -0.05740
  48        2S         -0.00592   0.00856   0.33841  -0.38621   0.13917
  49        3S          0.03627  -0.03633   0.10150  -0.12063   0.04407
  50        4S          0.00207   0.00263   0.14159  -0.42947   0.20789
  51        5S         -0.00077   0.00608  -0.00005  -0.09198   0.03416
  52        6PX         0.00000   0.00000   0.00000   0.00000   0.00000
  53        6PY         0.00000   0.00000   0.00000   0.00000   0.00000
  54        6PZ         0.00154  -0.00130   0.10994   0.08680  -0.26561
  55        7PX         0.00000   0.00000   0.00000   0.00000   0.00000
  56        7PY         0.00000   0.00000   0.00000   0.00000   0.00000
  57        7PZ         0.00030   0.00182   0.12186   0.08459  -0.30260
  58        8PX         0.00000   0.00000   0.00000   0.00000   0.00000
  59        8PY         0.00000   0.00000   0.00000   0.00000   0.00000
  60        8PZ        -0.00182   0.00309   0.02498  -0.03051  -0.15723
  61        9PX         0.00000   0.00000   0.00000   0.00000   0.00000
  62        9PY         0.00000   0.00000   0.00000   0.00000   0.00000
  63        9PZ        -0.00020   0.00122  -0.00344  -0.01255  -0.00438
  64       10D 0        0.00053  -0.00009   0.01126   0.00419  -0.01189
  65       10D+1        0.00000   0.00000   0.00000   0.00000   0.00000
  66       10D-1        0.00000   0.00000   0.00000   0.00000   0.00000
  67       10D+2       -0.00004   0.00003  -0.00106   0.00113  -0.00052
  68       10D-2        0.00000   0.00000   0.00000   0.00000   0.00000
  69       11D 0       -0.00096   0.00076   0.02072   0.00388  -0.01895
  70       11D+1        0.00000   0.00000   0.00000   0.00000   0.00000
  71       11D-1        0.00000   0.00000   0.00000   0.00000   0.00000
  72       11D+2        0.00004  -0.00006  -0.00377   0.00391  -0.00172
  73       11D-2        0.00000   0.00000   0.00000   0.00000   0.00000
  74       12D 0       -0.00098   0.00073   0.00139  -0.01391  -0.00968
  75       12D+1        0.00000   0.00000   0.00000   0.00000   0.00000
  76       12D-1        0.00000   0.00000   0.00000   0.00000   0.00000
  77       12D+2       -0.00001   0.00001  -0.00015  -0.00006  -0.00089
  78       12D-2        0.00000   0.00000   0.00000   0.00000   0.00000
  79       13F 0       -0.00015  -0.00015   0.00651   0.00002  -0.00656
  80       13F+1        0.00000   0.00000   0.00000   0.00000   0.00000
  81       13F-1        0.00000   0.00000   0.00000   0.00000   0.00000
  82       13F+2       -0.00000  -0.00000  -0.00093  -0.00059   0.00165
  83       13F-2        0.00000   0.00000   0.00000   0.00000   0.00000
  84       13F+3        0.00000   0.00000   0.00000   0.00000   0.00000
  85       13F-3        0.00000   0.00000   0.00000   0.00000   0.00000
  86       14F 0       -0.00086   0.00012   0.00220  -0.00025  -0.00066
  87       14F+1        0.00000   0.00000   0.00000   0.00000   0.00000
  88       14F-1        0.00000   0.00000   0.00000   0.00000   0.00000
  89       14F+2       -0.00001  -0.00001  -0.00094   0.00013   0.00087
  90       14F-2        0.00000   0.00000   0.00000   0.00000   0.00000
  91       14F+3        0.00000   0.00000   0.00000   0.00000   0.00000
  92       14F-3        0.00000   0.00000   0.00000   0.00000   0.00000
                           6         7         8         9        10
                       (PIU)--O  (PIU)--O  (PIG)--O  (PIG)--V  (SGU)--V
     Eigenvalues --    -0.55070  -0.54379  -0.25011  -0.17696   0.05105
   1 1   O  1S          0.00000   0.00000   0.00000   0.00000  -0.03848
   2        2S          0.00000   0.00000   0.00000   0.00000   0.07797
   3        3S          0.00000   0.00000   0.00000   0.00000   0.02419
   4        4S          0.00000   0.00000   0.00000   0.00000   1.32588
   5        5S          0.00000   0.00000   0.00000   0.00000   5.68840
   6        6PX         0.00000   0.26532   0.30590   0.00000   0.00000
   7        6PY         0.25875   0.00000   0.00000   0.29723   0.00000
   8        6PZ         0.00000   0.00000   0.00000   0.00000  -0.01814
   9        7PX         0.00000   0.31372   0.36160   0.00000   0.00000
  10        7PY         0.31335   0.00000   0.00000   0.35891   0.00000
  11        7PZ         0.00000   0.00000   0.00000   0.00000  -0.06876
  12        8PX         0.00000   0.17882   0.32177   0.00000   0.00000
  13        8PY         0.18055   0.00000   0.00000   0.33381   0.00000
  14        8PZ         0.00000   0.00000   0.00000   0.00000  -0.99960
  15        9PX         0.00000   0.00826   0.09958   0.00000   0.00000
  16        9PY         0.00778   0.00000   0.00000   0.12622   0.00000
  17        9PZ         0.00000   0.00000   0.00000   0.00000  -2.05736
  18       10D 0        0.00000   0.00000   0.00000   0.00000  -0.00409
  19       10D+1        0.00000  -0.01060   0.00203   0.00000   0.00000
  20       10D-1       -0.01091   0.00000   0.00000   0.00251   0.00000
  21       10D+2        0.00000   0.00000   0.00000   0.00000  -0.00034
  22       10D-2        0.00000   0.00000   0.00000   0.00000   0.00000
  23       11D 0        0.00000   0.00000   0.00000   0.00000   0.02647
  24       11D+1        0.00000  -0.02661   0.01216   0.00000   0.00000
  25       11D-1       -0.03037   0.00000   0.00000   0.01287   0.00000
  26       11D+2        0.00000   0.00000   0.00000   0.00000  -0.00131
  27       11D-2        0.00000   0.00000   0.00000   0.00000   0.00000
  28       12D 0        0.00000   0.00000   0.00000   0.00000   0.23172
  29       12D+1        0.00000  -0.00299   0.00431   0.00000   0.00000
  30       12D-1       -0.00787   0.00000   0.00000   0.00394   0.00000
  31       12D+2        0.00000   0.00000   0.00000   0.00000   0.00158
  32       12D-2        0.00000   0.00000   0.00000   0.00000   0.00000
  33       13F 0        0.00000   0.00000   0.00000   0.00000  -0.00072
  34       13F+1        0.00000   0.00654  -0.00071   0.00000   0.00000
  35       13F-1        0.00588   0.00000   0.00000  -0.00172   0.00000
  36       13F+2        0.00000   0.00000   0.00000   0.00000   0.00008
  37       13F-2        0.00000   0.00000   0.00000   0.00000   0.00000
  38       13F+3        0.00000  -0.00186  -0.00205   0.00000   0.00000
  39       13F-3       -0.00160   0.00000   0.00000  -0.00175   0.00000
  40       14F 0        0.00000   0.00000   0.00000   0.00000  -0.01981
  41       14F+1        0.00000   0.00178  -0.00338   0.00000   0.00000
  42       14F-1        0.00252   0.00000   0.00000  -0.00412   0.00000
  43       14F+2        0.00000   0.00000   0.00000   0.00000   0.00072
  44       14F-2        0.00000   0.00000   0.00000   0.00000   0.00000
  45       14F+3        0.00000  -0.00247  -0.00219   0.00000   0.00000
  46       14F-3       -0.00242   0.00000   0.00000  -0.00208   0.00000
  47 2   O  1S          0.00000   0.00000   0.00000   0.00000   0.03848
  48        2S          0.00000   0.00000   0.00000   0.00000  -0.07797
  49        3S          0.00000   0.00000   0.00000   0.00000  -0.02419
  50        4S          0.00000   0.00000   0.00000   0.00000  -1.32588
  51        5S          0.00000   0.00000   0.00000   0.00000  -5.68840
  52        6PX         0.00000   0.26532  -0.30590   0.00000   0.00000
  53        6PY         0.25875   0.00000   0.00000  -0.29723   0.00000
  54        6PZ         0.00000   0.00000   0.00000   0.00000  -0.01814
  55        7PX         0.00000   0.31372  -0.36160   0.00000   0.00000
  56        7PY         0.31335   0.00000   0.00000  -0.35891   0.00000
  57        7PZ         0.00000   0.00000   0.00000   0.00000  -0.06876
  58        8PX         0.00000   0.17882  -0.32177   0.00000   0.00000
  59        8PY         0.18055   0.00000   0.00000  -0.33381   0.00000
  60        8PZ         0.00000   0.00000   0.00000   0.00000  -0.99960
  61        9PX         0.00000   0.00826  -0.09958   0.00000   0.00000
  62        9PY         0.00778   0.00000   0.00000  -0.12622   0.00000
  63        9PZ         0.00000   0.00000   0.00000   0.00000  -2.05736
  64       10D 0        0.00000   0.00000   0.00000   0.00000   0.00409
  65       10D+1        0.00000   0.01060   0.00203   0.00000   0.00000
  66       10D-1        0.01091   0.00000   0.00000   0.00251   0.00000
  67       10D+2        0.00000   0.00000   0.00000   0.00000   0.00034
  68       10D-2        0.00000   0.00000   0.00000   0.00000   0.00000
  69       11D 0        0.00000   0.00000   0.00000   0.00000  -0.02647
  70       11D+1        0.00000   0.02661   0.01216   0.00000   0.00000
  71       11D-1        0.03037   0.00000   0.00000   0.01287   0.00000
  72       11D+2        0.00000   0.00000   0.00000   0.00000   0.00131
  73       11D-2        0.00000   0.00000   0.00000   0.00000   0.00000
  74       12D 0        0.00000   0.00000   0.00000   0.00000  -0.23172
  75       12D+1        0.00000   0.00299   0.00431   0.00000   0.00000
  76       12D-1        0.00787   0.00000   0.00000   0.00394   0.00000
  77       12D+2        0.00000   0.00000   0.00000   0.00000  -0.00158
  78       12D-2        0.00000   0.00000   0.00000   0.00000   0.00000
  79       13F 0        0.00000   0.00000   0.00000   0.00000  -0.00072
  80       13F+1        0.00000   0.00654   0.00071   0.00000   0.00000
  81       13F-1        0.00588   0.00000   0.00000   0.00172   0.00000
  82       13F+2        0.00000   0.00000   0.00000   0.00000   0.00008
  83       13F-2        0.00000   0.00000   0.00000   0.00000   0.00000
  84       13F+3        0.00000  -0.00186   0.00205   0.00000   0.00000
  85       13F-3       -0.00160   0.00000   0.00000   0.00175   0.00000
  86       14F 0        0.00000   0.00000   0.00000   0.00000  -0.01981
  87       14F+1        0.00000   0.00178   0.00338   0.00000   0.00000
  88       14F-1        0.00252   0.00000   0.00000   0.00412   0.00000
  89       14F+2        0.00000   0.00000   0.00000   0.00000   0.00072
  90       14F-2        0.00000   0.00000   0.00000   0.00000   0.00000
  91       14F+3        0.00000  -0.00247   0.00219   0.00000   0.00000
  92       14F-3       -0.00242   0.00000   0.00000   0.00208   0.00000
                          11        12        13        14        15
                       (SGG)--V  (PIU)--V  (PIU)--V  (SGG)--V  (PIG)--V
     Eigenvalues --     0.05988   0.08275   0.08676   0.13575   0.14528
   1 1   O  1S          0.04259   0.00000   0.00000  -0.01402   0.00000
   2        2S         -0.12526   0.00000   0.00000   0.06446   0.00000
   3        3S         -0.05167   0.00000   0.00000   0.02505   0.00000
   4        4S         -0.68252   0.00000   0.00000   0.50069   0.00000
   5        5S          0.97343   0.00000   0.00000  -0.04783   0.00000
   6        6PX         0.00000   0.00000  -0.07803   0.00000  -0.07688
   7        6PY         0.00000  -0.07827   0.00000   0.00000   0.00000
   8        6PZ        -0.05977   0.00000   0.00000  -0.02048   0.00000
   9        7PX         0.00000   0.00000  -0.06870   0.00000  -0.07690
  10        7PY         0.00000  -0.07417   0.00000   0.00000   0.00000
  11        7PZ        -0.01128   0.00000   0.00000  -0.05395   0.00000
  12        8PX         0.00000   0.00000  -0.17726   0.00000  -0.05595
  13        8PY         0.00000  -0.17131   0.00000   0.00000   0.00000
  14        8PZ        -0.28682   0.00000   0.00000   0.11725   0.00000
  15        9PX         0.00000   0.00000   0.60149   0.00000   2.14085
  16        9PY         0.00000   0.59888   0.00000   0.00000   0.00000
  17        9PZ         0.35914   0.00000   0.00000   1.59877   0.00000
  18       10D 0       -0.00410   0.00000   0.00000   0.00481   0.00000
  19       10D+1        0.00000   0.00000   0.00371   0.00000  -0.00163
  20       10D-1        0.00000   0.00365   0.00000   0.00000   0.00000
  21       10D+2        0.00009   0.00000   0.00000   0.00038   0.00000
  22       10D-2        0.00000   0.00000   0.00000   0.00000   0.00000
  23       11D 0        0.00763   0.00000   0.00000   0.02609   0.00000
  24       11D+1        0.00000   0.00000   0.01164   0.00000   0.01935
  25       11D-1        0.00000   0.01382   0.00000   0.00000   0.00000
  26       11D+2        0.00174   0.00000   0.00000  -0.00112   0.00000
  27       11D-2        0.00000   0.00000   0.00000   0.00000   0.00000
  28       12D 0        0.12050   0.00000   0.00000  -0.18960   0.00000
  29       12D+1        0.00000   0.00000  -0.00159   0.00000  -0.13732
  30       12D-1        0.00000  -0.00480   0.00000   0.00000   0.00000
  31       12D+2       -0.00974   0.00000   0.00000   0.01234   0.00000
  32       12D-2        0.00000   0.00000   0.00000   0.00000   0.00000
  33       13F 0        0.00357   0.00000   0.00000  -0.00534   0.00000
  34       13F+1        0.00000   0.00000  -0.00321   0.00000  -0.00229
  35       13F-1        0.00000  -0.00308   0.00000   0.00000   0.00000
  36       13F+2        0.00025   0.00000   0.00000   0.00026   0.00000
  37       13F-2        0.00000   0.00000   0.00000   0.00000   0.00000
  38       13F+3        0.00000   0.00000   0.00071   0.00000   0.00058
  39       13F-3        0.00000   0.00066   0.00000   0.00000   0.00000
  40       14F 0       -0.03277   0.00000   0.00000   0.02754   0.00000
  41       14F+1        0.00000   0.00000   0.00116   0.00000   0.00854
  42       14F-1        0.00000   0.00114   0.00000   0.00000   0.00000
  43       14F+2        0.00061   0.00000   0.00000  -0.00109   0.00000
  44       14F-2        0.00000   0.00000   0.00000   0.00000   0.00000
  45       14F+3        0.00000   0.00000  -0.00086   0.00000  -0.00030
  46       14F-3        0.00000  -0.00083   0.00000   0.00000   0.00000
  47 2   O  1S          0.04259   0.00000   0.00000  -0.01402   0.00000
  48        2S         -0.12526   0.00000   0.00000   0.06446   0.00000
  49        3S         -0.05167   0.00000   0.00000   0.02505   0.00000
  50        4S         -0.68252   0.00000   0.00000   0.50069   0.00000
  51        5S          0.97343   0.00000   0.00000  -0.04783   0.00000
  52        6PX         0.00000   0.00000  -0.07803   0.00000   0.07688
  53        6PY         0.00000  -0.07827   0.00000   0.00000   0.00000
  54        6PZ         0.05977   0.00000   0.00000   0.02048   0.00000
  55        7PX         0.00000   0.00000  -0.06870   0.00000   0.07690
  56        7PY         0.00000  -0.07417   0.00000   0.00000   0.00000
  57        7PZ         0.01128   0.00000   0.00000   0.05395   0.00000
  58        8PX         0.00000   0.00000  -0.17726   0.00000   0.05595
  59        8PY         0.00000  -0.17131   0.00000   0.00000   0.00000
  60        8PZ         0.28682   0.00000   0.00000  -0.11725   0.00000
  61        9PX         0.00000   0.00000   0.60149   0.00000  -2.14085
  62        9PY         0.00000   0.59888   0.00000   0.00000   0.00000
  63        9PZ        -0.35914   0.00000   0.00000  -1.59877   0.00000
  64       10D 0       -0.00410   0.00000   0.00000   0.00481   0.00000
  65       10D+1        0.00000   0.00000  -0.00371   0.00000  -0.00163
  66       10D-1        0.00000  -0.00365   0.00000   0.00000   0.00000
  67       10D+2        0.00009   0.00000   0.00000   0.00038   0.00000
  68       10D-2        0.00000   0.00000   0.00000   0.00000   0.00000
  69       11D 0        0.00763   0.00000   0.00000   0.02609   0.00000
  70       11D+1        0.00000   0.00000  -0.01164   0.00000   0.01935
  71       11D-1        0.00000  -0.01382   0.00000   0.00000   0.00000
  72       11D+2        0.00174   0.00000   0.00000  -0.00112   0.00000
  73       11D-2        0.00000   0.00000   0.00000   0.00000   0.00000
  74       12D 0        0.12050   0.00000   0.00000  -0.18960   0.00000
  75       12D+1        0.00000   0.00000   0.00159   0.00000  -0.13732
  76       12D-1        0.00000   0.00480   0.00000   0.00000   0.00000
  77       12D+2       -0.00974   0.00000   0.00000   0.01234   0.00000
  78       12D-2        0.00000   0.00000   0.00000   0.00000   0.00000
  79       13F 0       -0.00357   0.00000   0.00000   0.00534   0.00000
  80       13F+1        0.00000   0.00000  -0.00321   0.00000   0.00229
  81       13F-1        0.00000  -0.00308   0.00000   0.00000   0.00000
  82       13F+2       -0.00025   0.00000   0.00000  -0.00026   0.00000
  83       13F-2        0.00000   0.00000   0.00000   0.00000   0.00000
  84       13F+3        0.00000   0.00000   0.00071   0.00000  -0.00058
  85       13F-3        0.00000   0.00066   0.00000   0.00000   0.00000
  86       14F 0        0.03277   0.00000   0.00000  -0.02754   0.00000
  87       14F+1        0.00000   0.00000   0.00116   0.00000  -0.00854
  88       14F-1        0.00000   0.00114   0.00000   0.00000   0.00000
  89       14F+2       -0.00061   0.00000   0.00000   0.00109   0.00000
  90       14F-2        0.00000   0.00000   0.00000   0.00000   0.00000
  91       14F+3        0.00000   0.00000  -0.00086   0.00000   0.00030
  92       14F-3        0.00000  -0.00083   0.00000   0.00000   0.00000
                          16        17        18        19        20
                       (PIG)--V  (SGU)--V  (SGU)--V      V         V
     Eigenvalues --     0.14839   0.23978   0.32819   0.42103   0.42105
   1 1   O  1S          0.00000   0.06563  -0.04682  -0.00378   0.00000
   2        2S          0.00000  -0.27125   0.09248   0.00494   0.00000
   3        3S          0.00000  -0.10712   0.01647   0.00096   0.00000
   4        4S          0.00000   2.38770   2.48158  -0.15878   0.00000
   5        5S          0.00000  13.67847   9.71944   0.07244   0.00000
   6        6PX         0.00000   0.00000   0.00000   0.00000   0.00000
   7        6PY        -0.08192   0.00000   0.00000   0.00000   0.00000
   8        6PZ         0.00000   0.14757  -0.27400  -0.00535   0.00000
   9        7PX         0.00000   0.00000   0.00000   0.00000   0.00000
  10        7PY        -0.08619   0.00000   0.00000   0.00000   0.00000
  11        7PZ         0.00000   0.05949  -0.45205   0.00738   0.00000
  12        8PX         0.00000   0.00000   0.00000   0.00000   0.00000
  13        8PY        -0.05243   0.00000   0.00000   0.00000   0.00000
  14        8PZ         0.00000  -2.27046  -2.52098  -0.04775   0.00000
  15        9PX         0.00000   0.00000   0.00000   0.00000   0.00000
  16        9PY         2.13457   0.00000   0.00000   0.00000   0.00000
  17        9PZ         0.00000  -3.44389  -2.14333  -0.13260   0.00000
  18       10D 0        0.00000   0.00551  -0.01949   0.00136   0.00000
  19       10D+1        0.00000   0.00000   0.00000   0.00000   0.00000
  20       10D-1       -0.00160   0.00000   0.00000   0.00000   0.00000
  21       10D+2        0.00000   0.00064  -0.00043   0.02659   0.00000
  22       10D-2        0.00000   0.00000   0.00000   0.00000   0.02678
  23       11D 0        0.00000   0.14044   0.07462   0.00334   0.00000
  24       11D+1        0.00000   0.00000   0.00000   0.00000   0.00000
  25       11D-1        0.01775   0.00000   0.00000   0.00000   0.00000
  26       11D+2        0.00000   0.00315  -0.00260  -0.03397   0.00000
  27       11D-2        0.00000   0.00000   0.00000   0.00000  -0.03407
  28       12D 0        0.00000   0.66596   0.24712   0.11166   0.00000
  29       12D+1        0.00000   0.00000   0.00000   0.00000   0.00000
  30       12D-1       -0.13896   0.00000   0.00000   0.00000   0.00000
  31       12D+2        0.00000  -0.00402  -0.01116   0.57341   0.00000
  32       12D-2        0.00000   0.00000   0.00000   0.00000   0.57563
  33       13F 0        0.00000  -0.00844  -0.00645   0.00104   0.00000
  34       13F+1        0.00000   0.00000   0.00000   0.00000   0.00000
  35       13F-1       -0.00203   0.00000   0.00000   0.00000   0.00000
  36       13F+2        0.00000  -0.00069   0.00127  -0.00613   0.00000
  37       13F-2        0.00000   0.00000   0.00000   0.00000  -0.00624
  38       13F+3        0.00000   0.00000   0.00000   0.00000   0.00000
  39       13F-3        0.00055   0.00000   0.00000   0.00000   0.00000
  40       14F 0        0.00000  -0.06168  -0.03177  -0.01570   0.00000
  41       14F+1        0.00000   0.00000   0.00000   0.00000   0.00000
  42       14F-1        0.00963   0.00000   0.00000   0.00000   0.00000
  43       14F+2        0.00000  -0.00168   0.00294   0.00465   0.00000
  44       14F-2        0.00000   0.00000   0.00000   0.00000   0.00508
  45       14F+3        0.00000   0.00000   0.00000   0.00000   0.00000
  46       14F-3       -0.00022   0.00000   0.00000   0.00000   0.00000
  47 2   O  1S          0.00000  -0.06563   0.04682  -0.00378   0.00000
  48        2S          0.00000   0.27125  -0.09248   0.00494   0.00000
  49        3S          0.00000   0.10712  -0.01647   0.00096   0.00000
  50        4S          0.00000  -2.38770  -2.48158  -0.15878   0.00000
  51        5S          0.00000 -13.67847  -9.71944   0.07244   0.00000
  52        6PX         0.00000   0.00000   0.00000   0.00000   0.00000
  53        6PY         0.08192   0.00000   0.00000   0.00000   0.00000
  54        6PZ         0.00000   0.14757  -0.27400   0.00535   0.00000
  55        7PX         0.00000   0.00000   0.00000   0.00000   0.00000
  56        7PY         0.08619   0.00000   0.00000   0.00000   0.00000
  57        7PZ         0.00000   0.05949  -0.45205  -0.00738   0.00000
  58        8PX         0.00000   0.00000   0.00000   0.00000   0.00000
  59        8PY         0.05243   0.00000   0.00000   0.00000   0.00000
  60        8PZ         0.00000  -2.27046  -2.52098   0.04775   0.00000
  61        9PX         0.00000   0.00000   0.00000   0.00000   0.00000
  62        9PY        -2.13457   0.00000   0.00000   0.00000   0.00000
  63        9PZ         0.00000  -3.44389  -2.14333   0.13260   0.00000
  64       10D 0        0.00000  -0.00551   0.01949   0.00136   0.00000
  65       10D+1        0.00000   0.00000   0.00000   0.00000   0.00000
  66       10D-1       -0.00160   0.00000   0.00000   0.00000   0.00000
  67       10D+2        0.00000  -0.00064   0.00043   0.02659   0.00000
  68       10D-2        0.00000   0.00000   0.00000   0.00000   0.02678
  69       11D 0        0.00000  -0.14044  -0.07462   0.00334   0.00000
  70       11D+1        0.00000   0.00000   0.00000   0.00000   0.00000
  71       11D-1        0.01775   0.00000   0.00000   0.00000   0.00000
  72       11D+2        0.00000  -0.00315   0.00260  -0.03397   0.00000
  73       11D-2        0.00000   0.00000   0.00000   0.00000  -0.03407
  74       12D 0        0.00000  -0.66596  -0.24712   0.11166   0.00000
  75       12D+1        0.00000   0.00000   0.00000   0.00000   0.00000
  76       12D-1       -0.13896   0.00000   0.00000   0.00000   0.00000
  77       12D+2        0.00000   0.00402   0.01116   0.57341   0.00000
  78       12D-2        0.00000   0.00000   0.00000   0.00000   0.57563
  79       13F 0        0.00000  -0.00844  -0.00645  -0.00104   0.00000
  80       13F+1        0.00000   0.00000   0.00000   0.00000   0.00000
  81       13F-1        0.00203   0.00000   0.00000   0.00000   0.00000
  82       13F+2        0.00000  -0.00069   0.00127   0.00613   0.00000
  83       13F-2        0.00000   0.00000   0.00000   0.00000   0.00624
  84       13F+3        0.00000   0.00000   0.00000   0.00000   0.00000
  85       13F-3       -0.00055   0.00000   0.00000   0.00000   0.00000
  86       14F 0        0.00000  -0.06168  -0.03177   0.01570   0.00000
  87       14F+1        0.00000   0.00000   0.00000   0.00000   0.00000
  88       14F-1       -0.00963   0.00000   0.00000   0.00000   0.00000
  89       14F+2        0.00000  -0.00168   0.00294  -0.00465   0.00000
  90       14F-2        0.00000   0.00000   0.00000   0.00000  -0.00508
  91       14F+3        0.00000   0.00000   0.00000   0.00000   0.00000
  92       14F-3        0.00022   0.00000   0.00000   0.00000   0.00000
                          21        22        23        24        25
                           V     (PIU)--V  (PIU)--V      V         V
     Eigenvalues --     0.52701   0.60421   0.61395   0.65518   0.65539
   1 1   O  1S          0.03905   0.00000   0.00000   0.00000  -0.00960
   2        2S          0.00034   0.00000   0.00000   0.00000   0.01044
   3        3S         -0.00218   0.00000   0.00000   0.00000   0.00441
   4        4S          1.51416   0.00000   0.00000   0.00000   0.88188
   5        5S         -0.60169   0.00000   0.00000   0.00000   1.26051
   6        6PX         0.00000   0.00000  -0.05251   0.00000   0.00000
   7        6PY         0.00000  -0.04717   0.00000   0.00000   0.00000
   8        6PZ         0.07139   0.00000   0.00000   0.00000  -0.01359
   9        7PX         0.00000   0.00000  -0.14729   0.00000   0.00000
  10        7PY         0.00000  -0.13495   0.00000   0.00000   0.00000
  11        7PZ        -0.03061   0.00000   0.00000   0.00000  -0.03934
  12        8PX         0.00000   0.00000   0.72986   0.00000   0.00000
  13        8PY         0.00000   0.71796   0.00000   0.00000   0.00000
  14        8PZ         0.40693   0.00000   0.00000   0.00000  -0.63293
  15        9PX         0.00000   0.00000  -0.29010   0.00000   0.00000
  16        9PY         0.00000  -0.28536   0.00000   0.00000   0.00000
  17        9PZ         1.30872   0.00000   0.00000   0.00000  -0.27137
  18       10D 0       -0.02267   0.00000   0.00000   0.00000   0.00017
  19       10D+1        0.00000   0.00000   0.03156   0.00000   0.00000
  20       10D-1        0.00000   0.03135   0.00000   0.00000   0.00000
  21       10D+2        0.00271   0.00000   0.00000   0.00000   0.02525
  22       10D-2        0.00000   0.00000   0.00000   0.02556   0.00000
  23       11D 0       -0.01485   0.00000   0.00000   0.00000   0.00717
  24       11D+1        0.00000   0.00000  -0.04148   0.00000   0.00000
  25       11D-1        0.00000  -0.03797   0.00000   0.00000   0.00000
  26       11D+2       -0.00568   0.00000   0.00000   0.00000  -0.06044
  27       11D-2        0.00000   0.00000   0.00000  -0.06061   0.00000
  28       12D 0       -1.30392   0.00000   0.00000   0.00000   0.23478
  29       12D+1        0.00000   0.00000   0.79375   0.00000   0.00000
  30       12D-1        0.00000   0.79665   0.00000   0.00000   0.00000
  31       12D+2        0.04911   0.00000   0.00000   0.00000   1.21254
  32       12D-2        0.00000   0.00000   0.00000   1.21982   0.00000
  33       13F 0       -0.00633   0.00000   0.00000   0.00000   0.00144
  34       13F+1        0.00000   0.00000   0.00231   0.00000   0.00000
  35       13F-1        0.00000   0.00276   0.00000   0.00000   0.00000
  36       13F+2       -0.00143   0.00000   0.00000   0.00000   0.01493
  37       13F-2        0.00000   0.00000   0.00000   0.01494   0.00000
  38       13F+3        0.00000   0.00000   0.00037   0.00000   0.00000
  39       13F-3        0.00000   0.00025   0.00000   0.00000   0.00000
  40       14F 0        0.13651   0.00000   0.00000   0.00000  -0.01347
  41       14F+1        0.00000   0.00000  -0.04560   0.00000   0.00000
  42       14F-1        0.00000  -0.04759   0.00000   0.00000   0.00000
  43       14F+2        0.00392   0.00000   0.00000   0.00000  -0.08348
  44       14F-2        0.00000   0.00000   0.00000  -0.08385   0.00000
  45       14F+3        0.00000   0.00000  -0.00025   0.00000   0.00000
  46       14F-3        0.00000   0.00008   0.00000   0.00000   0.00000
  47 2   O  1S          0.03905   0.00000   0.00000   0.00000   0.00960
  48        2S          0.00034   0.00000   0.00000   0.00000  -0.01044
  49        3S         -0.00218   0.00000   0.00000   0.00000  -0.00441
  50        4S          1.51416   0.00000   0.00000   0.00000  -0.88188
  51        5S         -0.60169   0.00000   0.00000   0.00000  -1.26051
  52        6PX         0.00000   0.00000  -0.05251   0.00000   0.00000
  53        6PY         0.00000  -0.04717   0.00000   0.00000   0.00000
  54        6PZ        -0.07139   0.00000   0.00000   0.00000  -0.01359
  55        7PX         0.00000   0.00000  -0.14729   0.00000   0.00000
  56        7PY         0.00000  -0.13495   0.00000   0.00000   0.00000
  57        7PZ         0.03061   0.00000   0.00000   0.00000  -0.03934
  58        8PX         0.00000   0.00000   0.72986   0.00000   0.00000
  59        8PY         0.00000   0.71796   0.00000   0.00000   0.00000
  60        8PZ        -0.40693   0.00000   0.00000   0.00000  -0.63293
  61        9PX         0.00000   0.00000  -0.29010   0.00000   0.00000
  62        9PY         0.00000  -0.28536   0.00000   0.00000   0.00000
  63        9PZ        -1.30872   0.00000   0.00000   0.00000  -0.27137
  64       10D 0       -0.02267   0.00000   0.00000   0.00000  -0.00017
  65       10D+1        0.00000   0.00000  -0.03156   0.00000   0.00000
  66       10D-1        0.00000  -0.03135   0.00000   0.00000   0.00000
  67       10D+2        0.00271   0.00000   0.00000   0.00000  -0.02525
  68       10D-2        0.00000   0.00000   0.00000  -0.02556   0.00000
  69       11D 0       -0.01485   0.00000   0.00000   0.00000  -0.00717
  70       11D+1        0.00000   0.00000   0.04148   0.00000   0.00000
  71       11D-1        0.00000   0.03797   0.00000   0.00000   0.00000
  72       11D+2       -0.00568   0.00000   0.00000   0.00000   0.06044
  73       11D-2        0.00000   0.00000   0.00000   0.06061   0.00000
  74       12D 0       -1.30392   0.00000   0.00000   0.00000  -0.23478
  75       12D+1        0.00000   0.00000  -0.79375   0.00000   0.00000
  76       12D-1        0.00000  -0.79665   0.00000   0.00000   0.00000
  77       12D+2        0.04911   0.00000   0.00000   0.00000  -1.21254
  78       12D-2        0.00000   0.00000   0.00000  -1.21982   0.00000
  79       13F 0        0.00633   0.00000   0.00000   0.00000   0.00144
  80       13F+1        0.00000   0.00000   0.00231   0.00000   0.00000
  81       13F-1        0.00000   0.00276   0.00000   0.00000   0.00000
  82       13F+2        0.00143   0.00000   0.00000   0.00000   0.01493
  83       13F-2        0.00000   0.00000   0.00000   0.01494   0.00000
  84       13F+3        0.00000   0.00000   0.00037   0.00000   0.00000
  85       13F-3        0.00000   0.00025   0.00000   0.00000   0.00000
  86       14F 0       -0.13651   0.00000   0.00000   0.00000  -0.01347
  87       14F+1        0.00000   0.00000  -0.04560   0.00000   0.00000
  88       14F-1        0.00000  -0.04759   0.00000   0.00000   0.00000
  89       14F+2       -0.00392   0.00000   0.00000   0.00000  -0.08348
  90       14F-2        0.00000   0.00000   0.00000  -0.08385   0.00000
  91       14F+3        0.00000   0.00000  -0.00025   0.00000   0.00000
  92       14F-3        0.00000   0.00008   0.00000   0.00000   0.00000
                          26        27        28        29        30
                       (PIG)--V  (PIG)--V  (PIU)--V      V     (PIU)--V
     Eigenvalues --     0.66213   0.66603   0.69004   0.70637   0.70845
   1 1   O  1S          0.00000   0.00000   0.00000  -0.07191   0.00000
   2        2S          0.00000   0.00000   0.00000   0.05634   0.00000
   3        3S          0.00000   0.00000   0.00000   0.03877   0.00000
   4        4S          0.00000   0.00000   0.00000   6.16994   0.00000
   5        5S          0.00000   0.00000   0.00000   7.78567   0.00000
   6        6PX         0.00000  -0.15324   0.00000   0.00000  -0.18811
   7        6PY        -0.15608   0.00000  -0.18950   0.00000   0.00000
   8        6PZ         0.00000   0.00000   0.00000  -0.14626   0.00000
   9        7PX         0.00000  -0.30854   0.00000   0.00000  -0.50054
  10        7PY        -0.31756   0.00000  -0.50816   0.00000   0.00000
  11        7PZ         0.00000   0.00000   0.00000  -0.30934   0.00000
  12        8PX         0.00000  -1.77697   0.00000   0.00000   0.70007
  13        8PY        -1.73325   0.00000   0.71237   0.00000   0.00000
  14        8PZ         0.00000   0.00000   0.00000  -4.12569   0.00000
  15        9PX         0.00000  -1.38584   0.00000   0.00000  -0.30071
  16        9PY        -1.39196   0.00000  -0.31016   0.00000   0.00000
  17        9PZ         0.00000   0.00000   0.00000  -1.72142   0.00000
  18       10D 0        0.00000   0.00000   0.00000   0.00776   0.00000
  19       10D+1        0.00000   0.01614   0.00000   0.00000  -0.00814
  20       10D-1        0.01587   0.00000  -0.00708   0.00000   0.00000
  21       10D+2        0.00000   0.00000   0.00000  -0.00368   0.00000
  22       10D-2        0.00000   0.00000   0.00000   0.00000   0.00000
  23       11D 0        0.00000   0.00000   0.00000  -0.04399   0.00000
  24       11D+1        0.00000  -0.00968   0.00000   0.00000   0.04454
  25       11D-1       -0.00862   0.00000   0.04432   0.00000   0.00000
  26       11D+2        0.00000   0.00000   0.00000   0.00673   0.00000
  27       11D-2        0.00000   0.00000   0.00000   0.00000   0.00000
  28       12D 0        0.00000   0.00000   0.00000   1.86157   0.00000
  29       12D+1        0.00000   2.03630   0.00000   0.00000  -0.34728
  30       12D-1        2.01016   0.00000  -0.33468   0.00000   0.00000
  31       12D+2        0.00000   0.00000   0.00000  -0.13178   0.00000
  32       12D-2        0.00000   0.00000   0.00000   0.00000   0.00000
  33       13F 0        0.00000   0.00000   0.00000   0.01952   0.00000
  34       13F+1        0.00000   0.02074   0.00000   0.00000   0.00194
  35       13F-1        0.02087   0.00000   0.00181   0.00000   0.00000
  36       13F+2        0.00000   0.00000   0.00000  -0.00069   0.00000
  37       13F-2        0.00000   0.00000   0.00000   0.00000   0.00000
  38       13F+3        0.00000   0.00126   0.00000   0.00000   0.00222
  39       13F-3        0.00113   0.00000   0.00205   0.00000   0.00000
  40       14F 0        0.00000   0.00000   0.00000  -0.09233   0.00000
  41       14F+1        0.00000  -0.14078   0.00000   0.00000  -0.02073
  42       14F-1       -0.13883   0.00000  -0.02054   0.00000   0.00000
  43       14F+2        0.00000   0.00000   0.00000   0.00781   0.00000
  44       14F-2        0.00000   0.00000   0.00000   0.00000   0.00000
  45       14F+3        0.00000  -0.00251   0.00000   0.00000  -0.00749
  46       14F-3       -0.00224   0.00000  -0.00712   0.00000   0.00000
  47 2   O  1S          0.00000   0.00000   0.00000   0.07191   0.00000
  48        2S          0.00000   0.00000   0.00000  -0.05634   0.00000
  49        3S          0.00000   0.00000   0.00000  -0.03877   0.00000
  50        4S          0.00000   0.00000   0.00000  -6.16994   0.00000
  51        5S          0.00000   0.00000   0.00000  -7.78567   0.00000
  52        6PX         0.00000   0.15324   0.00000   0.00000  -0.18811
  53        6PY         0.15608   0.00000  -0.18950   0.00000   0.00000
  54        6PZ         0.00000   0.00000   0.00000  -0.14626   0.00000
  55        7PX         0.00000   0.30854   0.00000   0.00000  -0.50054
  56        7PY         0.31756   0.00000  -0.50816   0.00000   0.00000
  57        7PZ         0.00000   0.00000   0.00000  -0.30934   0.00000
  58        8PX         0.00000   1.77697   0.00000   0.00000   0.70007
  59        8PY         1.73325   0.00000   0.71237   0.00000   0.00000
  60        8PZ         0.00000   0.00000   0.00000  -4.12569   0.00000
  61        9PX         0.00000   1.38584   0.00000   0.00000  -0.30071
  62        9PY         1.39196   0.00000  -0.31016   0.00000   0.00000
  63        9PZ         0.00000   0.00000   0.00000  -1.72142   0.00000
  64       10D 0        0.00000   0.00000   0.00000  -0.00776   0.00000
  65       10D+1        0.00000   0.01614   0.00000   0.00000   0.00814
  66       10D-1        0.01587   0.00000   0.00708   0.00000   0.00000
  67       10D+2        0.00000   0.00000   0.00000   0.00368   0.00000
  68       10D-2        0.00000   0.00000   0.00000   0.00000   0.00000
  69       11D 0        0.00000   0.00000   0.00000   0.04399   0.00000
  70       11D+1        0.00000  -0.00968   0.00000   0.00000  -0.04454
  71       11D-1       -0.00862   0.00000  -0.04432   0.00000   0.00000
  72       11D+2        0.00000   0.00000   0.00000  -0.00673   0.00000
  73       11D-2        0.00000   0.00000   0.00000   0.00000   0.00000
  74       12D 0        0.00000   0.00000   0.00000  -1.86157   0.00000
  75       12D+1        0.00000   2.03630   0.00000   0.00000   0.34728
  76       12D-1        2.01016   0.00000   0.33468   0.00000   0.00000
  77       12D+2        0.00000   0.00000   0.00000   0.13178   0.00000
  78       12D-2        0.00000   0.00000   0.00000   0.00000   0.00000
  79       13F 0        0.00000   0.00000   0.00000   0.01952   0.00000
  80       13F+1        0.00000  -0.02074   0.00000   0.00000   0.00194
  81       13F-1       -0.02087   0.00000   0.00181   0.00000   0.00000
  82       13F+2        0.00000   0.00000   0.00000  -0.00069   0.00000
  83       13F-2        0.00000   0.00000   0.00000   0.00000   0.00000
  84       13F+3        0.00000  -0.00126   0.00000   0.00000   0.00222
  85       13F-3       -0.00113   0.00000   0.00205   0.00000   0.00000
  86       14F 0        0.00000   0.00000   0.00000  -0.09233   0.00000
  87       14F+1        0.00000   0.14078   0.00000   0.00000  -0.02073
  88       14F-1        0.13883   0.00000  -0.02054   0.00000   0.00000
  89       14F+2        0.00000   0.00000   0.00000   0.00781   0.00000
  90       14F-2        0.00000   0.00000   0.00000   0.00000   0.00000
  91       14F+3        0.00000   0.00251   0.00000   0.00000  -0.00749
  92       14F-3        0.00224   0.00000  -0.00712   0.00000   0.00000
                          31        32        33        34        35
                       (SGG)--V  (SGU)--V  (PIG)--V  (PIG)--V      V
     Eigenvalues --     0.77719   0.81187   0.98567   0.99586   1.35079
   1 1   O  1S          0.07885  -0.05403   0.00000   0.00000   0.02022
   2        2S         -0.18234  -0.02239   0.00000   0.00000  -0.58894
   3        3S         -0.03459  -0.06485   0.00000   0.00000  -0.16358
   4        4S          2.06746  10.49451   0.00000   0.00000  -0.44913
   5        5S         -1.02666  15.08533   0.00000   0.00000   0.29252
   6        6PX         0.00000   0.00000   0.00000  -0.13286   0.00000
   7        6PY         0.00000   0.00000  -0.13313   0.00000   0.00000
   8        6PZ        -0.11618   0.23537   0.00000   0.00000   0.06399
   9        7PX         0.00000   0.00000   0.00000  -0.32304   0.00000
  10        7PY         0.00000   0.00000  -0.32693   0.00000   0.00000
  11        7PZ        -0.65897  -0.09646   0.00000   0.00000   0.21940
  12        8PX         0.00000   0.00000   0.00000   6.48960   0.00000
  13        8PY         0.00000   0.00000   6.47353   0.00000   0.00000
  14        8PZ         1.94217  -8.56394   0.00000   0.00000  -1.12166
  15        9PX         0.00000   0.00000   0.00000   0.13753   0.00000
  16        9PY         0.00000   0.00000   0.14120   0.00000   0.00000
  17        9PZ         0.01021  -2.93143   0.00000   0.00000  -0.45205
  18       10D 0        0.02958  -0.01958   0.00000   0.00000   0.00197
  19       10D+1        0.00000   0.00000   0.00000   0.02412   0.00000
  20       10D-1        0.00000   0.00000   0.02360   0.00000   0.00000
  21       10D+2        0.00154  -0.00118   0.00000   0.00000   0.00084
  22       10D-2        0.00000   0.00000   0.00000   0.00000   0.00000
  23       11D 0       -0.10698   0.49978   0.00000   0.00000  -0.24096
  24       11D+1        0.00000   0.00000   0.00000  -0.32149   0.00000
  25       11D-1        0.00000   0.00000  -0.31886   0.00000   0.00000
  26       11D+2       -0.00116   0.00178   0.00000   0.00000  -0.03413
  27       11D-2        0.00000   0.00000   0.00000   0.00000   0.00000
  28       12D 0       -0.96968   1.61913   0.00000   0.00000   1.24697
  29       12D+1        0.00000   0.00000   0.00000  -3.56505   0.00000
  30       12D-1        0.00000   0.00000  -3.56362   0.00000   0.00000
  31       12D+2        0.00484  -0.02611   0.00000   0.00000   0.02721
  32       12D-2        0.00000   0.00000   0.00000   0.00000   0.00000
  33       13F 0       -0.01970  -0.03625   0.00000   0.00000  -0.01598
  34       13F+1        0.00000   0.00000   0.00000  -0.02644   0.00000
  35       13F-1        0.00000   0.00000  -0.02579   0.00000   0.00000
  36       13F+2        0.00082  -0.00142   0.00000   0.00000  -0.00275
  37       13F-2        0.00000   0.00000   0.00000   0.00000   0.00000
  38       13F+3        0.00000   0.00000   0.00000   0.00139   0.00000
  39       13F-3        0.00000   0.00000   0.00124   0.00000   0.00000
  40       14F 0        0.26103  -0.15048   0.00000   0.00000   0.24125
  41       14F+1        0.00000   0.00000   0.00000   0.44716   0.00000
  42       14F-1        0.00000   0.00000   0.44037   0.00000   0.00000
  43       14F+2       -0.00197   0.00379   0.00000   0.00000   0.02717
  44       14F-2        0.00000   0.00000   0.00000   0.00000   0.00000
  45       14F+3        0.00000   0.00000   0.00000  -0.00601   0.00000
  46       14F-3        0.00000   0.00000  -0.00551   0.00000   0.00000
  47 2   O  1S          0.07885   0.05403   0.00000   0.00000   0.02022
  48        2S         -0.18234   0.02239   0.00000   0.00000  -0.58894
  49        3S         -0.03459   0.06485   0.00000   0.00000  -0.16358
  50        4S          2.06746 -10.49451   0.00000   0.00000  -0.44913
  51        5S         -1.02666 -15.08533   0.00000   0.00000   0.29252
  52        6PX         0.00000   0.00000   0.00000   0.13286   0.00000
  53        6PY         0.00000   0.00000   0.13313   0.00000   0.00000
  54        6PZ         0.11618   0.23537   0.00000   0.00000  -0.06399
  55        7PX         0.00000   0.00000   0.00000   0.32304   0.00000
  56        7PY         0.00000   0.00000   0.32693   0.00000   0.00000
  57        7PZ         0.65897  -0.09646   0.00000   0.00000  -0.21940
  58        8PX         0.00000   0.00000   0.00000  -6.48960   0.00000
  59        8PY         0.00000   0.00000  -6.47353   0.00000   0.00000
  60        8PZ        -1.94217  -8.56394   0.00000   0.00000   1.12166
  61        9PX         0.00000   0.00000   0.00000  -0.13753   0.00000
  62        9PY         0.00000   0.00000  -0.14120   0.00000   0.00000
  63        9PZ        -0.01021  -2.93143   0.00000   0.00000   0.45205
  64       10D 0        0.02958   0.01958   0.00000   0.00000   0.00197
  65       10D+1        0.00000   0.00000   0.00000   0.02412   0.00000
  66       10D-1        0.00000   0.00000   0.02360   0.00000   0.00000
  67       10D+2        0.00154   0.00118   0.00000   0.00000   0.00084
  68       10D-2        0.00000   0.00000   0.00000   0.00000   0.00000
  69       11D 0       -0.10698  -0.49978   0.00000   0.00000  -0.24096
  70       11D+1        0.00000   0.00000   0.00000  -0.32149   0.00000
  71       11D-1        0.00000   0.00000  -0.31886   0.00000   0.00000
  72       11D+2       -0.00116  -0.00178   0.00000   0.00000  -0.03413
  73       11D-2        0.00000   0.00000   0.00000   0.00000   0.00000
  74       12D 0       -0.96968  -1.61913   0.00000   0.00000   1.24697
  75       12D+1        0.00000   0.00000   0.00000  -3.56505   0.00000
  76       12D-1        0.00000   0.00000  -3.56362   0.00000   0.00000
  77       12D+2        0.00484   0.02611   0.00000   0.00000   0.02721
  78       12D-2        0.00000   0.00000   0.00000   0.00000   0.00000
  79       13F 0        0.01970  -0.03625   0.00000   0.00000   0.01598
  80       13F+1        0.00000   0.00000   0.00000   0.02644   0.00000
  81       13F-1        0.00000   0.00000   0.02579   0.00000   0.00000
  82       13F+2       -0.00082  -0.00142   0.00000   0.00000   0.00275
  83       13F-2        0.00000   0.00000   0.00000   0.00000   0.00000
  84       13F+3        0.00000   0.00000   0.00000  -0.00139   0.00000
  85       13F-3        0.00000   0.00000  -0.00124   0.00000   0.00000
  86       14F 0       -0.26103  -0.15048   0.00000   0.00000  -0.24125
  87       14F+1        0.00000   0.00000   0.00000  -0.44716   0.00000
  88       14F-1        0.00000   0.00000  -0.44037   0.00000   0.00000
  89       14F+2        0.00197   0.00379   0.00000   0.00000  -0.02717
  90       14F-2        0.00000   0.00000   0.00000   0.00000   0.00000
  91       14F+3        0.00000   0.00000   0.00000   0.00601   0.00000
  92       14F-3        0.00000   0.00000   0.00551   0.00000   0.00000
                          36        37        38        39        40
                           V         V         V         V         V
     Eigenvalues --     1.59265   1.59461   1.62867   1.62867   1.64657
   1 1   O  1S          0.00000  -0.00015   0.00000   0.00000   0.00000
   2        2S          0.00000  -0.03238   0.00000   0.00000   0.00000
   3        3S          0.00000  -0.00526   0.00000   0.00000   0.00000
   4        4S          0.00000  -0.01173   0.00000   0.00000   0.00000
   5        5S          0.00000   0.01113   0.00000   0.00000   0.00000
   6        6PX         0.00000   0.00000   0.00326   0.00000   0.00000
   7        6PY         0.00000   0.00000   0.00000   0.00706   0.09066
   8        6PZ         0.00000   0.00331   0.00000   0.00000   0.00000
   9        7PX         0.00000   0.00000  -0.00543   0.00000   0.00000
  10        7PY         0.00000   0.00000   0.00000  -0.00215   0.05753
  11        7PZ         0.00000   0.01557   0.00000   0.00000   0.00000
  12        8PX         0.00000   0.00000   0.00475   0.00000   0.00000
  13        8PY         0.00000   0.00000   0.00000  -0.00505  -0.21289
  14        8PZ         0.00000  -0.06280   0.00000   0.00000   0.00000
  15        9PX         0.00000   0.00000  -0.00174   0.00000   0.00000
  16        9PY         0.00000   0.00000   0.00000   0.00071   0.05353
  17        9PZ         0.00000  -0.01388   0.00000   0.00000   0.00000
  18       10D 0        0.00000   0.00094   0.00000   0.00000   0.00000
  19       10D+1        0.00000   0.00000   0.00021   0.00000   0.00000
  20       10D-1        0.00000   0.00000   0.00000   0.00137   0.02794
  21       10D+2        0.00000   0.01047   0.00000   0.00000   0.00000
  22       10D-2        0.01056   0.00000   0.00000   0.00000   0.00000
  23       11D 0        0.00000  -0.00512   0.00000   0.00000   0.00000
  24       11D+1        0.00000   0.00000   0.01798   0.00000   0.00000
  25       11D-1        0.00000   0.00000   0.00000   0.05046   0.76795
  26       11D+2        0.00000   0.62936   0.00000   0.00000   0.00000
  27       11D-2        0.63055   0.00000   0.00000   0.00000   0.00000
  28       12D 0        0.00000   0.05758   0.00000   0.00000   0.00000
  29       12D+1        0.00000   0.00000  -0.01862   0.00000   0.00000
  30       12D-1        0.00000   0.00000   0.00000  -0.04590  -0.64642
  31       12D+2        0.00000  -0.39696   0.00000   0.00000   0.00000
  32       12D-2       -0.39810   0.00000   0.00000   0.00000   0.00000
  33       13F 0        0.00000  -0.00262   0.00000   0.00000   0.00000
  34       13F+1        0.00000   0.00000   0.00007   0.00000   0.00000
  35       13F-1        0.00000   0.00000   0.00000  -0.00060  -0.01671
  36       13F+2        0.00000   0.02648   0.00000   0.00000   0.00000
  37       13F-2        0.02661   0.00000   0.00000   0.00000   0.00000
  38       13F+3        0.00000   0.00000  -0.07536   0.00000   0.00000
  39       13F-3        0.00000   0.00000   0.00000  -0.07524   0.00479
  40       14F 0        0.00000   0.02486   0.00000   0.00000   0.00000
  41       14F+1        0.00000   0.00000   0.00298   0.00000   0.00000
  42       14F-1        0.00000   0.00000   0.00000   0.00651   0.10163
  43       14F+2        0.00000  -0.30006   0.00000   0.00000   0.00000
  44       14F-2       -0.30096   0.00000   0.00000   0.00000   0.00000
  45       14F+3        0.00000   0.00000   0.65493   0.00000   0.00000
  46       14F-3        0.00000   0.00000   0.00000   0.65372  -0.04254
  47 2   O  1S          0.00000  -0.00015   0.00000   0.00000   0.00000
  48        2S          0.00000  -0.03238   0.00000   0.00000   0.00000
  49        3S          0.00000  -0.00526   0.00000   0.00000   0.00000
  50        4S          0.00000  -0.01173   0.00000   0.00000   0.00000
  51        5S          0.00000   0.01113   0.00000   0.00000   0.00000
  52        6PX         0.00000   0.00000   0.00326   0.00000   0.00000
  53        6PY         0.00000   0.00000   0.00000   0.00706   0.09066
  54        6PZ         0.00000  -0.00331   0.00000   0.00000   0.00000
  55        7PX         0.00000   0.00000  -0.00543   0.00000   0.00000
  56        7PY         0.00000   0.00000   0.00000  -0.00215   0.05753
  57        7PZ         0.00000  -0.01557   0.00000   0.00000   0.00000
  58        8PX         0.00000   0.00000   0.00475   0.00000   0.00000
  59        8PY         0.00000   0.00000   0.00000  -0.00505  -0.21289
  60        8PZ         0.00000   0.06280   0.00000   0.00000   0.00000
  61        9PX         0.00000   0.00000  -0.00174   0.00000   0.00000
  62        9PY         0.00000   0.00000   0.00000   0.00071   0.05353
  63        9PZ         0.00000   0.01388   0.00000   0.00000   0.00000
  64       10D 0        0.00000   0.00094   0.00000   0.00000   0.00000
  65       10D+1        0.00000   0.00000  -0.00021   0.00000   0.00000
  66       10D-1        0.00000   0.00000   0.00000  -0.00137  -0.02794
  67       10D+2        0.00000   0.01047   0.00000   0.00000   0.00000
  68       10D-2        0.01056   0.00000   0.00000   0.00000   0.00000
  69       11D 0        0.00000  -0.00512   0.00000   0.00000   0.00000
  70       11D+1        0.00000   0.00000  -0.01798   0.00000   0.00000
  71       11D-1        0.00000   0.00000   0.00000  -0.05046  -0.76795
  72       11D+2        0.00000   0.62936   0.00000   0.00000   0.00000
  73       11D-2        0.63055   0.00000   0.00000   0.00000   0.00000
  74       12D 0        0.00000   0.05758   0.00000   0.00000   0.00000
  75       12D+1        0.00000   0.00000   0.01862   0.00000   0.00000
  76       12D-1        0.00000   0.00000   0.00000   0.04590   0.64642
  77       12D+2        0.00000  -0.39696   0.00000   0.00000   0.00000
  78       12D-2       -0.39810   0.00000   0.00000   0.00000   0.00000
  79       13F 0        0.00000   0.00262   0.00000   0.00000   0.00000
  80       13F+1        0.00000   0.00000   0.00007   0.00000   0.00000
[...]
                NBO               Theta   Phi    Theta   Phi    Dev    Theta   Phi    Dev
 ========================================================================================
     1. BD (   1) O   1 - O   2   180.0    0.0    90.0   90.0  90.0     90.0   90.0  90.0
     6. LP (   2) O   1             --     --     90.0    0.0   --       --     --    --
     8. LP (   2) O   2             --     --     90.0    0.0   --       --     --    --


 Second Order Perturbation Theory Analysis of Fock Matrix in NBO Basis

     Threshold for printing:   0.25 kcal/mol
                                                                              E(2)  E(j)-E(i) F(i,j)
         Donor NBO (i)                     Acceptor NBO (j)                 kcal/mol   a.u.    a.u. 
 ===================================================================================================

 within unit  1
   3. CR (   1) O   1                / 51. RY*(   2) O   2                    0.37   19.76    0.108
   4. CR (   1) O   2                / 10. RY*(   2) O   1                    0.37   19.76    0.108
   5. LP (   1) O   1                / 51. RY*(   2) O   2                    0.84    1.51    0.045
   6. LP (   2) O   1                / 50. RY*(   1) O   2                    3.05    1.30    0.080
   6. LP (   2) O   1                / 65. RY*(  16) O   2                    0.48    2.30    0.042
   7. LP (   1) O   2                / 10. RY*(   2) O   1                    0.84    1.51    0.045
   8. LP (   2) O   2                /  9. RY*(   1) O   1                    3.05    1.30    0.080
   8. LP (   2) O   2                / 24. RY*(  16) O   1                    0.48    2.30    0.042


 Natural Bond Orbitals (Summary):

                                                            Principal Delocalizations
           NBO                        Occupancy    Energy   (geminal,vicinal,remote)
 ====================================================================================
 Molecular unit  1  (O2)
     1. BD (   1) O   1 - O   2          1.00000    -0.53341   
     2. BD (   2) O   1 - O   2          1.00000    -1.11368   
     3. CR (   1) O   1                  0.99996   -19.15675  51(v)
     4. CR (   1) O   2                  0.99996   -19.15675  10(v)
     5. LP (   1) O   1                  0.99929    -0.90915  51(v)
     6. LP (   2) O   1                  0.99632    -0.39146  50(v),65(v)
     7. LP (   1) O   2                  0.99929    -0.90915  10(v)
     8. LP (   2) O   2                  0.99632    -0.39146  9(v),24(v)
     9. RY*(   1) O   1                  0.00368     0.91248   
    10. RY*(   2) O   1                  0.00072     0.60519   
    11. RY*(   3) O   1                  0.00002     1.52844   
    12. RY*(   4) O   1                  0.00000     1.01833   
    13. RY*(   5) O   1                  0.00000     3.38087   
    14. RY*(   6) O   1                  0.00000     0.83284   
    15. RY*(   7) O   1                  0.00000     0.53904   
    16. RY*(   8) O   1                  0.00000     3.36143   
    17. RY*(   9) O   1                  0.00000     0.83205   
    18. RY*(  10) O   1                  0.00000     8.19564   
    19. RY*(  11) O   1                  0.00000     4.63863   
    20. RY*(  12) O   1                  0.00000     1.26619   
    21. RY*(  13) O   1                  0.00000     1.86512   
    22. RY*(  14) O   1                  0.00000     0.94784   
    23. RY*(  15) O   1                  0.00000     6.20679   
    24. RY*(  16) O   1                  0.00000     1.91172   
    25. RY*(  17) O   1                  0.00000     1.34810   
    26. RY*(  18) O   1                  0.00000     6.45325   
    27. RY*(  19) O   1                  0.00000     2.30143   
    28. RY*(  20) O   1                  0.00000     1.24395   
    29. RY*(  21) O   1                  0.00000     6.43928   
    30. RY*(  22) O   1                  0.00000     1.84969   
    31. RY*(  23) O   1                  0.00000     0.95541   
    32. RY*(  24) O   1                  0.00000     6.21047   
    33. RY*(  25) O   1                  0.00000     3.49460   
    34. RY*(  26) O   1                  0.00000     2.94531   
    35. RY*(  27) O   1                  0.00000     6.69515   
    36. RY*(  28) O   1                  0.00000     5.88163   
    37. RY*(  29) O   1                  0.00000     3.18750   
    38. RY*(  30) O   1                  0.00000     5.90715   
    39. RY*(  31) O   1                  0.00000     2.61130   
    40. RY*(  32) O   1                  0.00000     5.90239   
    41. RY*(  33) O   1                  0.00000     2.58105   
    42. RY*(  34) O   1                  0.00000     5.62210   
    43. RY*(  35) O   1                  0.00000     2.40534   
    44. RY*(  36) O   1                  0.00000     5.61900   
    45. RY*(  37) O   1                  0.00000     2.42106   
    46. RY*(  38) O   1                  0.00000     5.65963   
    47. RY*(  39) O   1                  0.00000     2.12330   
    48. RY*(  40) O   1                  0.00000     5.65999   
    49. RY*(  41) O   1                  0.00000     2.12375   
    50. RY*(   1) O   2                  0.00368     0.91248   
    51. RY*(   2) O   2                  0.00072     0.60519   
    52. RY*(   3) O   2                  0.00002     1.52844   
    53. RY*(   4) O   2                  0.00000     1.01833   
    54. RY*(   5) O   2                  0.00000     3.38087   
    55. RY*(   6) O   2                  0.00000     0.83284   
    56. RY*(   7) O   2                  0.00000     0.53904   
    57. RY*(   8) O   2                  0.00000     3.36143   
    58. RY*(   9) O   2                  0.00000     0.83205   
    59. RY*(  10) O   2                  0.00000     8.19564   
    60. RY*(  11) O   2                  0.00000     4.63863   
    61. RY*(  12) O   2                  0.00000     1.26619   
    62. RY*(  13) O   2                  0.00000     1.86512   
    63. RY*(  14) O   2                  0.00000     0.94784   
    64. RY*(  15) O   2                  0.00000     6.20679   
    65. RY*(  16) O   2                  0.00000     1.91172   
    66. RY*(  17) O   2                  0.00000     1.34810   
    67. RY*(  18) O   2                  0.00000     6.45325   
    68. RY*(  19) O   2                  0.00000     2.30143   
    69. RY*(  20) O   2                  0.00000     1.24395   
    70. RY*(  21) O   2                  0.00000     6.43928   
    71. RY*(  22) O   2                  0.00000     1.84969   
    72. RY*(  23) O   2                  0.00000     0.95541   
    73. RY*(  24) O   2                  0.00000     6.21047   
    74. RY*(  25) O   2                  0.00000     3.49460   
    75. RY*(  26) O   2                  0.00000     2.94531   
    76. RY*(  27) O   2                  0.00000     6.69515   
    77. RY*(  28) O   2                  0.00000     5.88163   
    78. RY*(  29) O   2                  0.00000     3.18750   
    79. RY*(  30) O   2                  0.00000     5.90715   
    80. RY*(  31) O   2                  0.00000     2.61130   
    81. RY*(  32) O   2                  0.00000     5.90239   
    82. RY*(  33) O   2                  0.00000     2.58105   
    83. RY*(  34) O   2                  0.00000     5.62210   
    84. RY*(  35) O   2                  0.00000     2.40534   
    85. RY*(  36) O   2                  0.00000     5.61900   
    86. RY*(  37) O   2                  0.00000     2.42106   
    87. RY*(  38) O   2                  0.00000     5.65963   
    88. RY*(  39) O   2                  0.00000     2.12330   
    89. RY*(  40) O   2                  0.00000     5.65999   
    90. RY*(  41) O   2                  0.00000     2.12375   
    91. BD*(   1) O   1 - O   2          0.00000    -0.16669   
    92. BD*(   2) O   1 - O   2          0.00000     0.36925   
       -------------------------------
              Total Lewis    7.99115  ( 99.8894%)
        Valence non-Lewis    0.00000  (  0.0000%)
        Rydberg non-Lewis    0.00885  (  0.1106%)
       -------------------------------
            Total unit  1    8.00000  (100.0000%)
           Charge unit  1    0.00000
 Leave Link  607 at Fri Sep  6 10:26:09 2024, MaxMem=   104857600 cpu:               0.3 elap:               0.2
 (Enter /Users/asuyarger/Applications/G16/g16/l701.exe)
 ... and contract with generalized density number  0.
 Compute integral second derivatives.
 Leave Link  701 at Fri Sep  6 10:26:09 2024, MaxMem=   104857600 cpu:               0.1 elap:               0.1
 (Enter /Users/asuyarger/Applications/G16/g16/l702.exe)
 L702 exits ... SP integral derivatives will be done elsewhere.
 Leave Link  702 at Fri Sep  6 10:26:09 2024, MaxMem=   104857600 cpu:               0.0 elap:               0.0
 (Enter /Users/asuyarger/Applications/G16/g16/l703.exe)
 Integral derivatives from FoFJK, PRISM(SPDF).
 Compute integral second derivatives, UseDBF=F ICtDFT=           0.
 Calling FoFJK, ICntrl=    100127 FMM=F ISym2X=1 I1Cent= 0 IOpClX= 1 NMat=1 NMatS=1 NMatT=0.
 FoFJK:  IHMeth= 1 ICntrl=  100127 DoSepK=F KAlg= 0 I1Cent=           0 FoldK=F
 IRaf=         0 NMat=       1 IRICut=       1 DoRegI=T DoRafI=F ISym2E= 1 IDoP0=0 IntGTp=1.
 FoFCou: FMM=F IPFlag=           0 FMFlag=      100000 FMFlg1=         800
         NFxFlg=           0 DoJE=F BraDBF=F KetDBF=F FulRan=T
         wScrn=  0.000000 ICntrl=    100127 IOpCl=  1 I1Cent=           0 NGrid=           0
         NMat0=    1 NMatS0=      1 NMatT0=    0 NMatD0=    1 NMtDS0=    0 NMtDT0=    0
 Petite list used in FoFCou.
 Leave Link  703 at Fri Sep  6 10:26:12 2024, MaxMem=   104857600 cpu:               2.8 elap:               2.8
 (Enter /Users/asuyarger/Applications/G16/g16/l716.exe)
 Dipole        =-1.57772181D-30 4.04445288D-33-4.44089210D-16
 Polarizability= 8.54136051D+00-1.64168669D-18 7.79758372D+00
                -5.15115487D-16 8.07610329D-32 1.44975267D+01
 HyperPolar    = 3.78159101D-11-1.15157150D-12-1.24695021D-11
                 3.43020698D-11-1.34814657D-11 5.41156831D-13
                -1.68557327D-12-2.66384178D-11 2.05039655D-11
                 2.67735400D-12
 Full mass-weighted force constant matrix:
 Low frequencies ---   -1.3550    0.0008    0.0009    0.0017    1.0493 1614.3239
 Diagonal vibrational polarizability:
        0.0000000       0.0000000       0.0000000
 Diagonal vibrational hyperpolarizability:
        0.0000000       0.0000000       0.0000000
 Harmonic frequencies (cm**-1), IR intensities (KM/Mole), Raman scattering
 activities (A**4/AMU), depolarization ratios for plane and unpolarized
 incident light, reduced masses (AMU), force constants (mDyne/A),
 and normal coordinates:
                      1
                     SGG
 Frequencies --   1614.3239
 Red. masses --     15.9949
 Frc consts  --     24.5592
 IR Inten    --      0.0000
 Raman Activ --      9.8196
 Depolar (P) --      0.1956
 Depolar (U) --      0.3272
  Atom  AN      X      Y      Z
     1   8    -0.00   0.00   0.71
     2   8     0.00   0.00  -0.71

 -------------------
 - Thermochemistry -
 -------------------
 Temperature   298.150 Kelvin.  Pressure   1.00000 Atm.
 Atom     1 has atomic number  8 and mass  15.99491
 Atom     2 has atomic number  8 and mass  15.99491
 Molecular mass:    31.98983 amu.
 Principal axes and moments of inertia in atomic units:
                           1         2         3
     Eigenvalues --    -0.00000  41.48073  41.48073
           X           -0.00000   1.00000  -0.00000
           Y            0.00000   0.00000   1.00000
           Z            1.00000   0.00000  -0.00000
 This molecule is a prolate symmetric top.
 Rotational symmetry number  2.
 Rotational temperature (Kelvin)      2.08805
 Rotational constant (GHZ):          43.507939
 Zero-point vibrational energy       9655.8 (Joules/Mol)
                                    2.30779 (Kcal/Mol)
 Vibrational temperatures:   2322.65
          (Kelvin)
 
 Zero-point correction=                           0.003678 (Hartree/Particle)
 Thermal correction to Energy=                    0.006041
 Thermal correction to Enthalpy=                  0.006985
 Thermal correction to Gibbs Free Energy=        -0.015249
 Sum of electronic and zero-point Energies=           -150.319683
 Sum of electronic and thermal Energies=              -150.317319
 Sum of electronic and thermal Enthalpies=            -150.316375
 Sum of electronic and thermal Free Energies=         -150.338610
 
                     E (Thermal)             CV                S
                      KCal/Mol        Cal/Mol-Kelvin    Cal/Mol-Kelvin
 Total                    3.791              5.018             46.797
 Electronic               0.000              0.000              0.000
 Translational            0.889              2.981             36.321
 Rotational               0.592              1.987             10.469
 Vibrational              2.310              0.050              0.007
                       Q            Log10(Q)             Ln(Q)
 Total Bot       0.103322D+08          7.014192         16.150773
 Total V=0       0.507943D+09          8.705815         20.045880
 Vib (Bot)       0.203496D-01         -1.691444         -3.894693
 Vib (V=0)       0.100041D+01          0.000180          0.000414
 Electronic      0.100000D+01          0.000000          0.000000
 Translational   0.711167D+07          6.851972         15.777248
 Rotational      0.713943D+02          1.853664          4.268218
 ***** Axes restored to original set *****
 -------------------------------------------------------------------
 Center     Atomic                   Forces (Hartrees/Bohr)
 Number     Number              X              Y              Z
 -------------------------------------------------------------------
      1        8          -0.000000003    0.000000000   -0.000000000
      2        8           0.000000003   -0.000000000    0.000000000
 -------------------------------------------------------------------
 Cartesian Forces:  Max     0.000000003 RMS     0.000000002
 Force constants in Cartesian coordinates: 
                1             2             3             4             5 
      1  0.788723D+00
      2  0.000000D+00  0.000000D+00
      3  0.000000D+00  0.000000D+00  0.000000D+00
      4 -0.788723D+00  0.000000D+00  0.000000D+00  0.788723D+00
      5  0.000000D+00  0.000000D+00  0.000000D+00  0.000000D+00  0.000000D+00
      6  0.000000D+00  0.000000D+00  0.000000D+00  0.000000D+00  0.000000D+00
                6 
      6  0.000000D+00
 FormGI is forming the generalized inverse of G from B-inverse, IUseBI=4.
 Force constants in internal coordinates: 
                1 
      1  0.788723D+00
 Leave Link  716 at Fri Sep  6 10:26:12 2024, MaxMem=   104857600 cpu:               0.0 elap:               0.0
 (Enter /Users/asuyarger/Applications/G16/g16/l103.exe)

 GradGradGradGradGradGradGradGradGradGradGradGradGradGradGradGradGradGrad
 Berny optimization.
 Red2BG is reusing G-inverse.
 Internal  Forces:  Max     0.000000003 RMS     0.000000003
 Search for a local minimum.
 Step number   1 out of a maximum of    2
 All quantities printed in internal units (Hartrees-Bohrs-Radians)
 Second derivative matrix not updated -- analytic derivatives used.
 The second derivative matrix:
                          R1
           R1           0.78872
 ITU=  0
     Eigenvalues ---    0.78872
 Angle between quadratic step and forces=  90.00 degrees.
 Linear search not attempted -- first point.
 Iteration  1 RMS(Cart)=  0.00000000 RMS(Int)=  0.00000000
 ITry= 1 IFail=0 DXMaxC= 1.66D-09 DCOld= 1.00D+10 DXMaxT= 3.00D-01 DXLimC= 3.00D+00 Rises=F
 ClnCor:  largest displacement from symmetrization is 1.02D-25 for atom     1.
 Variable       Old X    -DE/DX   Delta X   Delta X   Delta X     New X
                                 (Linear)    (Quad)   (Total)
    R1        2.27744  -0.00000   0.00000  -0.00000  -0.00000   2.27744
         Item               Value     Threshold  Converged?
 Maximum Force            0.000000     0.000015     YES
 RMS     Force            0.000000     0.000010     YES
 Maximum Displacement     0.000000     0.000060     YES
 RMS     Displacement     0.000000     0.000040     YES
 Predicted change in Energy=-4.356542D-18
 Optimization completed.
    -- Stationary point found.
                           ----------------------------
                           !   Optimized Parameters   !
                           ! (Angstroms and Degrees)  !
 --------------------------                            --------------------------
 ! Name  Definition              Value          Derivative Info.                !
 --------------------------------------------------------------------------------
 ! R1    R(1,2)                  1.2052         -DE/DX =    0.0                 !
 --------------------------------------------------------------------------------
 GradGradGradGradGradGradGradGradGradGradGradGradGradGradGradGradGradGrad

 Leave Link  103 at Fri Sep  6 10:26:12 2024, MaxMem=   104857600 cpu:               0.0 elap:               0.0
 (Enter /Users/asuyarger/Applications/G16/g16/l9999.exe)
 Dipole is zero, so no output in dipole orientation.

 ----------------------------------------------------------------------

 Electric dipole moment (input orientation):
 (Debye = 10**-18 statcoulomb cm , SI units = C m)
                  (au)            (Debye)         (10**-30 SI)
   Tot        0.000000D+00      0.000000D+00      0.000000D+00
   x          0.000000D+00      0.000000D+00      0.000000D+00
   y          0.000000D+00      0.000000D+00      0.000000D+00
   z          0.000000D+00      0.000000D+00      0.000000D+00

 Dipole polarizability, Alpha (input orientation).
 (esu units = cm**3 , SI units = C**2 m**2 J**-1)
 Alpha(0;0):
               (au)            (10**-24 esu)      (10**-40 SI)
   iso        0.102788D+02      0.152316D+01      0.169475D+01
   aniso      0.636075D+01      0.942566D+00      0.104875D+01
   xx         0.144975D+02      0.214831D+01      0.239032D+01
   yx         0.000000D+00      0.000000D+00      0.000000D+00
   yy         0.779758D+01      0.115548D+01      0.128565D+01
   zx         0.000000D+00      0.000000D+00      0.000000D+00
   zy         0.000000D+00      0.000000D+00      0.000000D+00
   zz         0.854136D+01      0.126570D+01      0.140828D+01

 ----------------------------------------------------------------------
 1\1\GINC-JEFFSMACSTUDIO\Freq\UB3LYP\Aug-CC-pVTZ\O2\ROOT\06-Sep-2024\0\
 \#P Geom=AllCheck Guess=TCheck SCRF=Check GenChk UB3LYP/Aug-CC-pVTZ Fr
 eq\\O2 DFT uB3LPY aug-cc-pVTZ Opt Freq - Full - NBO\\0,1\O,-0.51166876
 47,0.31645569,0.\O,-1.7168389553,0.31645569,0.\\Version=EM64M-G16RevA.
 03\HF=-150.3233607\S2=0.\S2-1=0.\S2A=0.\RMSD=1.341e-09\RMSF=1.514e-09\
 ZeroPoint=0.0036777\Thermal=0.0060412\Dipole=0.,0.,0.\DipoleDeriv=0.,0
 .,0.,0.,0.,0.,0.,0.,0.,0.,0.,0.,0.,0.,0.,0.,0.,0.\Polar=14.4975267,0.,
 7.7975837,0.,0.,8.5413605\PolarDeriv=8.5122871,0.,2.2583192,0.,0.,0.35
 77509,0.,2.9419218,0.,0.,0.,0.,0.,0.,0.,2.6140831,0.,0.,-8.5122871,0.,
 -2.2583192,0.,0.,-0.3577509,0.,-2.9419218,0.,0.,0.,0.,0.,0.,0.,-2.6140
 831,0.,0.\HyperPolar=0.,0.,0.,0.,0.,0.,0.,0.,0.,0.\Quadrupole=-0.25826
 59,0.8109205,-0.5526547,0.,0.,0.\PG=D*H [C*(O1.O1)]\NImag=0\\0.7887233
 7,0.,-0.00000056,0.,0.,0.00000033,-0.78872337,0.,0.,0.78872337,0.,0.00
 000056,0.,0.,-0.00000056,0.,0.,-0.00000033,0.,0.,0.00000033\\0.,0.,0.,
 0.,0.,0.\\\@


 ERWIN WITH HIS PSI CAN DO
 CALCULATIONS QUITE A FEW.
 BUT ONE THING HAS NOT BEEN SEEN
 JUST WHAT DOES PSI REALLY MEAN.
 -- WALTER HUCKEL, TRANS. BY FELIX BLOCH
 Job cpu time:       0 days  0 hours  0 minutes 15.4 seconds.
 Elapsed time:       0 days  0 hours  0 minutes 15.2 seconds.
 File lengths (MBytes):  RWF=     12 Int=      0 D2E=      0 Chk=      2 Scr=      1
 Normal termination of Gaussian 16 at Fri Sep  6 10:26:12 2024.
