 Entering Gaussian System, Link 0=g16
 Input=/Users/asuyarger/Downloads/O2_DFT_B3LPY_6311pp2d3p_Opt_Freq_Full.gjf
 Output=/Users/asuyarger/Downloads/O2_DFT_B3LPY_6311pp2d3p_Opt_Freq_Full.log
 Initial command:
 /Users/asuyarger/Applications/G16/g16/l1.exe "/Users/asuyarger/Applications/G16/scratch/Gau-88528.inp" -scrdir="/Users/asuyarger/Applications/G16/scratch/"
 Entering Link 1 = /Users/asuyarger/Applications/G16/g16/l1.exe PID=     88529.
  
 Copyright (c) 1988,1990,1992,1993,1995,1998,2003,2009,2016,
            Gaussian, Inc.  All Rights Reserved.
  
 This is part of the Gaussian(R) 16 program.  It is based on
 the Gaussian(R) 09 system (copyright 2009, Gaussian, Inc.),
 the Gaussian(R) 03 system (copyright 2003, Gaussian, Inc.),
 the Gaussian(R) 98 system (copyright 1998, Gaussian, Inc.),
 the Gaussian(R) 94 system (copyright 1995, Gaussian, Inc.),
 the Gaussian 92(TM) system (copyright 1992, Gaussian, Inc.),
 the Gaussian 90(TM) system (copyright 1990, Gaussian, Inc.),
 the Gaussian 88(TM) system (copyright 1988, Gaussian, Inc.),
 the Gaussian 86(TM) system (copyright 1986, Carnegie Mellon
 University), and the Gaussian 82(TM) system (copyright 1983,
 Carnegie Mellon University). Gaussian is a federally registered
 trademark of Gaussian, Inc.
  
 This software contains proprietary and confidential information,
 including trade secrets, belonging to Gaussian, Inc.
  
 This software is provided under written license and may be
 used, copied, transmitted, or stored only in accord with that
 written license.
  
 The following legend is applicable only to US Government
 contracts under FAR:
  
                    RESTRICTED RIGHTS LEGEND
  
 Use, reproduction and disclosure by the US Government is
 subject to restrictions as set forth in subparagraphs (a)
 and (c) of the Commercial Computer Software - Restricted
 Rights clause in FAR 52.227-19.
  
 Gaussian, Inc.
 340 Quinnipiac St., Bldg. 40, Wallingford CT 06492
  
  
 ---------------------------------------------------------------
 Warning -- This program may not be used in any manner that
 competes with the business of Gaussian, Inc. or will provide
 assistance to any competitor of Gaussian, Inc.  The licensee
 of this program is prohibited from giving any competitor of
 Gaussian, Inc. access to this program.  By using this program,
 the user acknowledges that Gaussian, Inc. is engaged in the
 business of creating and licensing software in the field of
 computational chemistry and represents and warrants to the
 licensee that it is not a competitor of Gaussian, Inc. and that
 it will not use this program in any manner prohibited above.
 ---------------------------------------------------------------
  

 Cite this work as:
 Gaussian 16, Revision A.03,
 M. J. Frisch, G. W. Trucks, H. B. Schlegel, G. E. Scuseria, 
 M. A. Robb, J. R. Cheeseman, G. Scalmani, V. Barone, 
 G. A. Petersson, H. Nakatsuji, X. Li, M. Caricato, A. V. Marenich, 
 J. Bloino, B. G. Janesko, R. Gomperts, B. Mennucci, H. P. Hratchian, 
 J. V. Ortiz, A. F. Izmaylov, J. L. Sonnenberg, D. Williams-Young, 
 F. Ding, F. Lipparini, F. Egidi, J. Goings, B. Peng, A. Petrone, 
 T. Henderson, D. Ranasinghe, V. G. Zakrzewski, J. Gao, N. Rega, 
 G. Zheng, W. Liang, M. Hada, M. Ehara, K. Toyota, R. Fukuda, 
 J. Hasegawa, M. Ishida, T. Nakajima, Y. Honda, O. Kitao, H. Nakai, 
 T. Vreven, K. Throssell, J. A. Montgomery, Jr., J. E. Peralta, 
 F. Ogliaro, M. J. Bearpark, J. J. Heyd, E. N. Brothers, K. N. Kudin, 
 V. N. Staroverov, T. A. Keith, R. Kobayashi, J. Normand, 
 K. Raghavachari, A. P. Rendell, J. C. Burant, S. S. Iyengar, 
 J. Tomasi, M. Cossi, J. M. Millam, M. Klene, C. Adamo, R. Cammi, 
 J. W. Ochterski, R. L. Martin, K. Morokuma, O. Farkas, 
 J. B. Foresman, and D. J. Fox, Gaussian, Inc., Wallingford CT, 2016.
 
 ******************************************
 Gaussian 16:  EM64M-G16RevA.03 25-Dec-2016
                 6-Sep-2024 
 ******************************************
 %chk=O2_DFT_B3LPY_6311pp2d3p_Opt_Freq_Full.chk
 ----------------------------------------------------------------------
 #p opt freq=raman b3lyp/6-311++g(2d,3p) guess=save pop=(hirshfeld,full
 ) geom=connectivity polar
 ----------------------------------------------------------------------
 1/18=20,19=15,26=3,38=1,57=2/1,3;
 2/9=110,12=2,17=6,18=5,40=1/2;
 3/5=4,6=6,7=1512,11=2,25=1,30=1,71=1,74=-5/1,2,3;
 4//1;
 5/5=2,38=5,98=1/2;
 6/7=3,28=1,79=1/1;
 7//1,2,3,16;
 1/18=20,19=15,26=3/3(2);
 2/9=110/2;
 99//99;
 2/9=110/2;
 3/5=4,6=6,7=1512,11=2,25=1,30=1,71=1,74=-5/1,2,3;
 4/5=5,16=3,69=1/1;
 5/5=2,38=5,98=1/2;
 7//1,2,3,16;
 1/18=20,19=15,26=3/3(-5);
 2/9=110/2;
 6/7=3,19=2,28=1,79=1/1;
 99/9=1/99;
 Leave Link    1 at Fri Sep  6 09:59:41 2024, MaxMem=           0 cpu:               0.0 elap:               0.0
 (Enter /Users/asuyarger/Applications/G16/g16/l101.exe)
 --------------------------------------------
 O2 DFT B3LPY 6-311++g(2d,3p) Opt Freq - Full
 --------------------------------------------
 Symbolic Z-matrix:
 Charge =  0 Multiplicity = 1
 O                     1.55159  -0.69787  -0.02031 
 O                     0.38999  -0.69787  -0.02031 
 
 ITRead=  0  0
 MicOpt= -1 -1
 NAtoms=      2 NQM=        2 NQMF=       0 NMMI=      0 NMMIF=      0
                NMic=       0 NMicF=      0.
                    Isotopes and Nuclear Properties:
 (Nuclear quadrupole moments (NQMom) in fm**2, nuclear magnetic moments (NMagM)
  in nuclear magnetons)

  Atom         1           2
 IAtWgt=          16          16
 AtmWgt=  15.9949146  15.9949146
 NucSpn=           0           0
 AtZEff=  -0.0000000  -0.0000000
 NQMom=    0.0000000   0.0000000
 NMagM=    0.0000000   0.0000000
 AtZNuc=   8.0000000   8.0000000
 Leave Link  101 at Fri Sep  6 09:59:41 2024, MaxMem=   104857600 cpu:               0.1 elap:               0.1
 (Enter /Users/asuyarger/Applications/G16/g16/l103.exe)

 GradGradGradGradGradGradGradGradGradGradGradGradGradGradGradGradGradGrad
 Berny optimization.
 Initialization pass.
                           ----------------------------
                           !    Initial Parameters    !
                           ! (Angstroms and Degrees)  !
 --------------------------                            --------------------------
 ! Name  Definition              Value          Derivative Info.                !
 --------------------------------------------------------------------------------
 ! R1    R(1,2)                  1.1616         estimate D2E/DX2                !
 --------------------------------------------------------------------------------
 Trust Radius=3.00D-01 FncErr=1.00D-07 GrdErr=1.00D-06 EigMax=2.50D+02 EigMin=1.00D-04
 Number of steps in this run=     20 maximum allowed number of steps=    100.
 GradGradGradGradGradGradGradGradGradGradGradGradGradGradGradGradGradGrad

 Leave Link  103 at Fri Sep  6 09:59:41 2024, MaxMem=   104857600 cpu:               0.0 elap:               0.0
 (Enter /Users/asuyarger/Applications/G16/g16/l202.exe)
                          Input orientation:                          
 ---------------------------------------------------------------------
 Center     Atomic      Atomic             Coordinates (Angstroms)
 Number     Number       Type             X           Y           Z
 ---------------------------------------------------------------------
      1          8           0        1.551591   -0.697865   -0.020311
      2          8           0        0.389991   -0.697865   -0.020311
 ---------------------------------------------------------------------
 Stoichiometry    O2
 Framework group  D*H[C*(O.O)]
 Deg. of freedom     1
 Full point group                 D*H     NOp   8
 Largest Abelian subgroup         D2H     NOp   8
 Largest concise Abelian subgroup C2      NOp   2
                         Standard orientation:                         
 ---------------------------------------------------------------------
 Center     Atomic      Atomic             Coordinates (Angstroms)
 Number     Number       Type             X           Y           Z
 ---------------------------------------------------------------------
      1          8           0        0.000000    0.000000    0.580800
      2          8           0        0.000000    0.000000   -0.580800
 ---------------------------------------------------------------------
 Rotational constants (GHZ):           0.0000000          46.8330090          46.8330090
 Leave Link  202 at Fri Sep  6 09:59:41 2024, MaxMem=   104857600 cpu:               0.0 elap:               0.0
 (Enter /Users/asuyarger/Applications/G16/g16/l301.exe)
 Standard basis: 6-311++G(2d,3p) (5D, 7F)
 Ernie: Thresh=  0.10000D-02 Tol=  0.10000D-05 Strict=F.
 There are    15 symmetry adapted cartesian basis functions of AG  symmetry.
 There are     2 symmetry adapted cartesian basis functions of B1G symmetry.
 There are     6 symmetry adapted cartesian basis functions of B2G symmetry.
 There are     6 symmetry adapted cartesian basis functions of B3G symmetry.
 There are     2 symmetry adapted cartesian basis functions of AU  symmetry.
 There are    15 symmetry adapted cartesian basis functions of B1U symmetry.
 There are     6 symmetry adapted cartesian basis functions of B2U symmetry.
 There are     6 symmetry adapted cartesian basis functions of B3U symmetry.
 There are    13 symmetry adapted basis functions of AG  symmetry.
 There are     2 symmetry adapted basis functions of B1G symmetry.
 There are     6 symmetry adapted basis functions of B2G symmetry.
 There are     6 symmetry adapted basis functions of B3G symmetry.
 There are     2 symmetry adapted basis functions of AU  symmetry.
 There are    13 symmetry adapted basis functions of B1U symmetry.
 There are     6 symmetry adapted basis functions of B2U symmetry.
 There are     6 symmetry adapted basis functions of B3U symmetry.
    54 basis functions,    84 primitive gaussians,    58 cartesian basis functions
     8 alpha electrons        8 beta electrons
       nuclear repulsion energy        29.1557691967 Hartrees.
 IExCor=  402 DFT=T Ex+Corr=B3LYP ExCW=0 ScaHFX=  0.200000
 ScaDFX=  0.800000  0.720000  1.000000  0.810000 ScalE2=  1.000000  1.000000
 IRadAn=      5 IRanWt=     -1 IRanGd=            0 ICorTp=0 IEmpDi=  4
 NAtoms=    2 NActive=    2 NUniq=    1 SFac= 4.00D+00 NAtFMM=   60 NAOKFM=F Big=F
 Integral buffers will be    131072 words long.
 Raffenetti 2 integral format.
 Two-electron integral symmetry is turned on.
 Leave Link  301 at Fri Sep  6 09:59:41 2024, MaxMem=   104857600 cpu:               0.0 elap:               0.0
 (Enter /Users/asuyarger/Applications/G16/g16/l302.exe)
 NPDir=0 NMtPBC=     1 NCelOv=     1 NCel=       1 NClECP=     1 NCelD=      1
         NCelK=      1 NCelE2=     1 NClLst=     1 CellRange=     0.0.
 One-electron integrals computed using PRISM.
 One-electron integral symmetry used in STVInt
 NBasis=    54 RedAO= T EigKep=  5.98D-04  NBF=    13     2     6     6     2    13     6     6
 NBsUse=    54 1.00D-06 EigRej= -1.00D+00 NBFU=    13     2     6     6     2    13     6     6
 Precomputing XC quadrature grid using
 IXCGrd= 4 IRadAn=           5 IRanWt=          -1 IRanGd=           0 AccXCQ= 0.00D+00.
 Generated NRdTot=       0 NPtTot=           0 NUsed=           0 NTot=          32
 NSgBfM=    58    58    58    58    58 MxSgAt=     2 MxSgA2=     2.
 Leave Link  302 at Fri Sep  6 09:59:41 2024, MaxMem=   104857600 cpu:               0.0 elap:               0.1
 (Enter /Users/asuyarger/Applications/G16/g16/l303.exe)
 DipDrv:  MaxL=1.
 Leave Link  303 at Fri Sep  6 09:59:41 2024, MaxMem=   104857600 cpu:               0.0 elap:               0.0
 (Enter /Users/asuyarger/Applications/G16/g16/l401.exe)
 ExpMin= 8.45D-02 ExpMax= 8.59D+03 ExpMxC= 1.30D+03 IAcc=3 IRadAn=         5 AccDes= 0.00D+00
 Harris functional with IExCor=  402 and IRadAn=       5 diagonalized for initial guess.
 HarFok:  IExCor=  402 AccDes= 0.00D+00 IRadAn=         5 IDoV= 1 UseB2=F ITyADJ=14
 ICtDFT=  3500011 ScaDFX=  1.000000  1.000000  1.000000  1.000000
 FoFCou: FMM=F IPFlag=           0 FMFlag=      100000 FMFlg1=           0
         NFxFlg=           0 DoJE=T BraDBF=F KetDBF=T FulRan=T
         wScrn=  0.000000 ICntrl=       500 IOpCl=  0 I1Cent=   200000004 NGrid=           0
         NMat0=    1 NMatS0=      1 NMatT0=    0 NMatD0=    1 NMtDS0=    0 NMtDT0=    0
 Petite list used in FoFCou.
 Harris En= -150.317502414753    
 JPrj=0 DoOrth=F DoCkMO=F.
 Initial guess orbital symmetries:
       Occupied  (SGG) (SGU) (SGG) (SGU) (SGG) (PIU) (PIU) (PIG)
       Virtual   (PIG) (SGG) (SGU) (PIU) (PIU) (SGG) (PIG) (PIG)
                 (SGU) (SGU) (SGU) (SGG) (PIU) (PIU) (PIG) (PIG)
                 (SGG) (DLTG) (DLTG) (PIU) (PIU) (SGU) (DLTU) (DLTU)
                 (PIG) (PIG) (SGG) (SGU) (PIU) (PIU) (SGG) (PIG)
                 (PIG) (SGU) (DLTG) (DLTG) (DLTU) (DLTU) (PIU)
                 (PIU) (SGG) (PIG) (PIG) (SGU) (SGG) (SGU)
 Leave Link  401 at Fri Sep  6 09:59:41 2024, MaxMem=   104857600 cpu:               0.1 elap:               0.1
 (Enter /Users/asuyarger/Applications/G16/g16/l502.exe)
 Keep R1 ints in memory in symmetry-blocked form, NReq=1990124.
 FoFCou: FMM=F IPFlag=           0 FMFlag=           0 FMFlg1=           0
         NFxFlg=           0 DoJE=F BraDBF=F KetDBF=F FulRan=T
         wScrn=  0.000000 ICntrl=       600 IOpCl=  0 I1Cent=           0 NGrid=           0
         NMat0=    1 NMatS0=   1485 NMatT0=    0 NMatD0=    1 NMtDS0=    0 NMtDT0=    0
 Petite list used in FoFCou.
 Closed shell SCF:
 Using DIIS extrapolation, IDIIS=  1040.
 NGot=   104857600 LenX=   104695113 LenY=   104691308
 Requested convergence on RMS density matrix=1.00D-08 within 128 cycles.
 Requested convergence on MAX density matrix=1.00D-06.
 Requested convergence on             energy=1.00D-06.
 No special actions if energy rises.
 Integral accuracy reduced to 1.0D-05 until final iterations.

 Cycle   1  Pass 0  IDiag  1:
 E= -150.301414458937    
 DIIS: error= 2.31D-02 at cycle   1 NSaved=   1.
 NSaved= 1 IEnMin= 1 EnMin= -150.301414458937     IErMin= 1 ErrMin= 2.31D-02
 ErrMax= 2.31D-02  0.00D+00 EMaxC= 1.00D-01 BMatC= 1.82D-02 BMatP= 1.82D-02
 IDIUse=3 WtCom= 7.69D-01 WtEn= 2.31D-01
 Coeff-Com:  0.100D+01
 Coeff-En:   0.100D+01
 Coeff:      0.100D+01
 Gap=     0.070 Goal=   None    Shift=    0.000
 GapD=    0.070 DampG=0.500 DampE=0.500 DampFc=0.2500 IDamp=-1.
 Damping current iteration by 2.50D-01
 RMSDP=1.68D-03 MaxDP=2.25D-02              OVMax= 3.11D-02

 Cycle   2  Pass 0  IDiag  1:
 E= -150.303931149253     Delta-E=       -0.002516690317 Rises=F Damp=T
 DIIS: error= 1.49D-02 at cycle   2 NSaved=   2.
 NSaved= 2 IEnMin= 2 EnMin= -150.303931149253     IErMin= 2 ErrMin= 1.49D-02
 ErrMax= 1.49D-02  0.00D+00 EMaxC= 1.00D-01 BMatC= 8.45D-03 BMatP= 1.82D-02
 IDIUse=3 WtCom= 8.51D-01 WtEn= 1.49D-01
 Coeff-Com: -0.203D+01 0.303D+01
 Coeff-En:   0.000D+00 0.100D+01
 Coeff:     -0.173D+01 0.273D+01
 Gap=     0.071 Goal=   None    Shift=    0.000
 RMSDP=8.08D-04 MaxDP=1.07D-02 DE=-2.52D-03 OVMax= 9.67D-03

 Cycle   3  Pass 0  IDiag  1:
 E= -150.309751172544     Delta-E=       -0.005820023291 Rises=F Damp=F
 DIIS: error= 9.32D-04 at cycle   3 NSaved=   3.
 NSaved= 3 IEnMin= 3 EnMin= -150.309751172544     IErMin= 3 ErrMin= 9.32D-04
 ErrMax= 9.32D-04  0.00D+00 EMaxC= 1.00D-01 BMatC= 2.34D-05 BMatP= 8.45D-03
 IDIUse=3 WtCom= 9.91D-01 WtEn= 9.32D-03
 Coeff-Com: -0.194D+00 0.299D+00 0.895D+00
 Coeff-En:   0.000D+00 0.000D+00 0.100D+01
 Coeff:     -0.192D+00 0.296D+00 0.896D+00
 Gap=     0.072 Goal=   None    Shift=    0.000
 RMSDP=9.52D-05 MaxDP=1.49D-03 DE=-5.82D-03 OVMax= 1.80D-03

 Cycle   4  Pass 0  IDiag  1:
 E= -150.309758557327     Delta-E=       -0.000007384782 Rises=F Damp=F
 DIIS: error= 5.89D-04 at cycle   4 NSaved=   4.
 NSaved= 4 IEnMin= 4 EnMin= -150.309758557327     IErMin= 4 ErrMin= 5.89D-04
 ErrMax= 5.89D-04  0.00D+00 EMaxC= 1.00D-01 BMatC= 9.30D-06 BMatP= 2.34D-05
 IDIUse=3 WtCom= 9.94D-01 WtEn= 5.89D-03
 Coeff-Com:  0.156D-01-0.216D-01 0.385D+00 0.621D+00
 Coeff-En:   0.000D+00 0.000D+00 0.291D+00 0.709D+00
 Coeff:      0.155D-01-0.215D-01 0.384D+00 0.622D+00
 Gap=     0.072 Goal=   None    Shift=    0.000
 RMSDP=3.98D-05 MaxDP=5.56D-04 DE=-7.38D-06 OVMax= 7.92D-04

 Cycle   5  Pass 0  IDiag  1:
 E= -150.309764779255     Delta-E=       -0.000006221928 Rises=F Damp=F
 DIIS: error= 2.62D-05 at cycle   5 NSaved=   5.
 NSaved= 5 IEnMin= 5 EnMin= -150.309764779255     IErMin= 5 ErrMin= 2.62D-05
 ErrMax= 2.62D-05  0.00D+00 EMaxC= 1.00D-01 BMatC= 1.91D-08 BMatP= 9.30D-06
 IDIUse=1 WtCom= 1.00D+00 WtEn= 0.00D+00
 Coeff-Com: -0.759D-03 0.855D-03 0.376D-02 0.480D-01 0.948D+00
 Coeff:     -0.759D-03 0.855D-03 0.376D-02 0.480D-01 0.948D+00
 Gap=     0.072 Goal=   None    Shift=    0.000
 RMSDP=1.94D-06 MaxDP=2.85D-05 DE=-6.22D-06 OVMax= 3.89D-05

 Initial convergence to 1.0D-05 achieved.  Increase integral accuracy.
 Cycle   6  Pass 1  IDiag  1:
 E= -150.309763054633     Delta-E=        0.000001724622 Rises=F Damp=F
 DIIS: error= 2.38D-06 at cycle   1 NSaved=   1.
 NSaved= 1 IEnMin= 1 EnMin= -150.309763054633     IErMin= 1 ErrMin= 2.38D-06
 ErrMax= 2.38D-06  0.00D+00 EMaxC= 1.00D-01 BMatC= 1.40D-10 BMatP= 1.40D-10
 IDIUse=1 WtCom= 1.00D+00 WtEn= 0.00D+00
 Coeff-Com:  0.100D+01
 Coeff:      0.100D+01
 Gap=     0.072 Goal=   None    Shift=    0.000
 RMSDP=1.94D-06 MaxDP=2.85D-05 DE= 1.72D-06 OVMax= 9.21D-06

 Cycle   7  Pass 1  IDiag  1:
 E= -150.309763054808     Delta-E=       -0.000000000176 Rises=F Damp=F
 DIIS: error= 7.50D-07 at cycle   2 NSaved=   2.
 NSaved= 2 IEnMin= 2 EnMin= -150.309763054808     IErMin= 2 ErrMin= 7.50D-07
 ErrMax= 7.50D-07  0.00D+00 EMaxC= 1.00D-01 BMatC= 1.81D-11 BMatP= 1.40D-10
 IDIUse=1 WtCom= 1.00D+00 WtEn= 0.00D+00
 Coeff-Com:  0.143D+00 0.857D+00
 Coeff:      0.143D+00 0.857D+00
 Gap=     0.072 Goal=   None    Shift=    0.000
 RMSDP=7.43D-08 MaxDP=1.33D-06 DE=-1.76D-10 OVMax= 1.39D-06

 Cycle   8  Pass 1  IDiag  1:
 E= -150.309763054816     Delta-E=       -0.000000000008 Rises=F Damp=F
 DIIS: error= 5.12D-07 at cycle   3 NSaved=   3.
 NSaved= 3 IEnMin= 3 EnMin= -150.309763054816     IErMin= 3 ErrMin= 5.12D-07
 ErrMax= 5.12D-07  0.00D+00 EMaxC= 1.00D-01 BMatC= 7.28D-12 BMatP= 1.81D-11
 IDIUse=1 WtCom= 1.00D+00 WtEn= 0.00D+00
 Coeff-Com: -0.182D-01 0.388D+00 0.630D+00
 Coeff:     -0.182D-01 0.388D+00 0.630D+00
 Gap=     0.072 Goal=   None    Shift=    0.000
 RMSDP=3.94D-08 MaxDP=4.54D-07 DE=-7.84D-12 OVMax= 7.98D-07

 Cycle   9  Pass 1  IDiag  1:
 E= -150.309763054821     Delta-E=       -0.000000000005 Rises=F Damp=F
 DIIS: error= 1.21D-08 at cycle   4 NSaved=   4.
 NSaved= 4 IEnMin= 4 EnMin= -150.309763054821     IErMin= 4 ErrMin= 1.21D-08
 ErrMax= 1.21D-08  0.00D+00 EMaxC= 1.00D-01 BMatC= 4.68D-15 BMatP= 7.28D-12
 IDIUse=1 WtCom= 1.00D+00 WtEn= 0.00D+00
 Coeff-Com: -0.273D-02 0.453D-01 0.724D-01 0.885D+00
 Coeff:     -0.273D-02 0.453D-01 0.724D-01 0.885D+00
 Gap=     0.072 Goal=   None    Shift=    0.000
 RMSDP=1.59D-09 MaxDP=1.59D-08 DE=-4.63D-12 OVMax= 2.48D-08

 SCF Done:  E(RB3LYP) =  -150.309763055     A.U. after    9 cycles
            NFock=  9  Conv=0.16D-08     -V/T= 2.0014
 KE= 1.500938048123D+02 PE=-4.138971918331D+02 EE= 8.433785476924D+01
 Leave Link  502 at Fri Sep  6 09:59:42 2024, MaxMem=   104857600 cpu:               0.3 elap:               0.3
 (Enter /Users/asuyarger/Applications/G16/g16/l601.exe)
 Copying SCF densities to generalized density rwf, IOpCl= 0 IROHF=0.

 **********************************************************************

            Population analysis using the SCF density.

 **********************************************************************

 Orbital symmetries:
       Occupied  (SGG) (SGU) (SGG) (SGU) (SGG) (PIU) (PIU) (PIG)
       Virtual   (PIG) (SGG) (SGU) (PIU) (PIU) (SGG) (PIG) (PIG)
                 (SGU) (SGU) (SGU) (?A) (PIU) (PIU) (PIG) (PIG)
                 (?A) (?A) (?A) (PIU) (PIU) (?B) (?B) (?B) (PIG)
                 (SGG) (PIG) (SGU) (PIU) (PIU) (SGG) (PIG) (PIG)
                 (SGU) (?C) (?C) (DLTU) (DLTU) (PIU) (PIU) (?C)
                 (PIG) (PIG) (SGU) (SGG) (SGU)
 Unable to determine electronic state:  partially filled degenerate orbitals.
 Alpha  occ. eigenvalues --  -19.28626 -19.28592  -1.33842  -0.79804  -0.55727
 Alpha  occ. eigenvalues --   -0.55232  -0.54371  -0.25038
 Alpha virt. eigenvalues --   -0.17871   0.08141   0.09243   0.12471   0.13146
 Alpha virt. eigenvalues --    0.18990   0.20715   0.20810   0.31326   0.33927
 Alpha virt. eigenvalues --    0.90149   0.91995   0.92133   0.93950   1.00767
 Alpha virt. eigenvalues --    1.01956   1.13973   1.20196   1.20676   1.30153
 Alpha virt. eigenvalues --    1.33040   1.48674   1.63732   1.63982   2.25082
 Alpha virt. eigenvalues --    2.26913   2.27738   2.48440   4.69554   4.71978
 Alpha virt. eigenvalues --    4.79367   4.97278   4.99968   6.20829   6.52887
 Alpha virt. eigenvalues --    6.53224   6.65210   6.65605   6.69205   6.71970
 Alpha virt. eigenvalues --    6.74674   6.78312   6.80840   7.26367  49.66100
 Alpha virt. eigenvalues --   49.77764
     Molecular Orbital Coefficients:
                           1         2         3         4         5
                       (SGG)--O  (SGU)--O  (SGG)--O  (SGU)--O  (SGG)--O
     Eigenvalues --   -19.28626 -19.28592  -1.33842  -0.79804  -0.55727
   1 1   O  1S          0.38982   0.38983  -0.08503  -0.09068  -0.03270
   2        2S          0.33228   0.33222  -0.13583  -0.14696  -0.05311
   3        2PX         0.00000   0.00000   0.00000   0.00000   0.00000
   4        2PY         0.00000   0.00000   0.00000   0.00000   0.00000
   5        2PZ        -0.00130  -0.00090  -0.08955   0.07116   0.21567
   6        3S          0.00921   0.00920   0.39767   0.44867   0.15600
   7        3PX         0.00000   0.00000   0.00000   0.00000   0.00000
   8        3PY         0.00000   0.00000   0.00000   0.00000   0.00000
   9        3PZ         0.00005  -0.00052  -0.13549   0.09103   0.31473
  10        4S         -0.00402  -0.00739   0.20761   0.45406   0.22266
  11        4PX         0.00000   0.00000   0.00000   0.00000   0.00000
  12        4PY         0.00000   0.00000   0.00000   0.00000   0.00000
  13        4PZ         0.00047   0.00169  -0.03969   0.02171   0.19224
  14        5S          0.00117   0.01799  -0.01002  -0.15241   0.04229
  15        5PX         0.00000   0.00000   0.00000   0.00000   0.00000
  16        5PY         0.00000   0.00000   0.00000   0.00000   0.00000
  17        5PZ        -0.00052  -0.00544   0.00937   0.05679   0.00260
  18        6D 0        0.00030   0.00016   0.01156  -0.00427  -0.01099
  19        6D+1        0.00000   0.00000   0.00000   0.00000   0.00000
  20        6D-1        0.00000   0.00000   0.00000   0.00000   0.00000
  21        6D+2       -0.00005  -0.00004  -0.00092  -0.00105  -0.00049
  22        6D-2        0.00000   0.00000   0.00000   0.00000   0.00000
  23        7D 0       -0.00077   0.00041   0.02054  -0.00367  -0.02062
  24        7D+1        0.00000   0.00000   0.00000   0.00000   0.00000
  25        7D-1        0.00000   0.00000   0.00000   0.00000   0.00000
  26        7D+2        0.00003   0.00006  -0.00453  -0.00436  -0.00191
  27        7D-2        0.00000   0.00000   0.00000   0.00000   0.00000
  28 2   O  1S          0.38982  -0.38983  -0.08503   0.09068  -0.03270
  29        2S          0.33228  -0.33222  -0.13583   0.14696  -0.05311
  30        2PX         0.00000   0.00000   0.00000   0.00000   0.00000
  31        2PY         0.00000   0.00000   0.00000   0.00000   0.00000
  32        2PZ         0.00130  -0.00090   0.08955   0.07116  -0.21567
  33        3S          0.00921  -0.00920   0.39767  -0.44867   0.15600
  34        3PX         0.00000   0.00000   0.00000   0.00000   0.00000
  35        3PY         0.00000   0.00000   0.00000   0.00000   0.00000
  36        3PZ        -0.00005  -0.00052   0.13549   0.09103  -0.31473
  37        4S         -0.00402   0.00739   0.20761  -0.45406   0.22266
  38        4PX         0.00000   0.00000   0.00000   0.00000   0.00000
  39        4PY         0.00000   0.00000   0.00000   0.00000   0.00000
  40        4PZ        -0.00047   0.00169   0.03969   0.02171  -0.19224
  41        5S          0.00117  -0.01799  -0.01002   0.15241   0.04229
  42        5PX         0.00000   0.00000   0.00000   0.00000   0.00000
  43        5PY         0.00000   0.00000   0.00000   0.00000   0.00000
  44        5PZ         0.00052  -0.00544  -0.00937   0.05679  -0.00260
  45        6D 0        0.00030  -0.00016   0.01156   0.00427  -0.01099
  46        6D+1        0.00000   0.00000   0.00000   0.00000   0.00000
  47        6D-1        0.00000   0.00000   0.00000   0.00000   0.00000
  48        6D+2       -0.00005   0.00004  -0.00092   0.00105  -0.00049
  49        6D-2        0.00000   0.00000   0.00000   0.00000   0.00000
  50        7D 0       -0.00077  -0.00041   0.02054   0.00367  -0.02062
  51        7D+1        0.00000   0.00000   0.00000   0.00000   0.00000
  52        7D-1        0.00000   0.00000   0.00000   0.00000   0.00000
  53        7D+2        0.00003  -0.00006  -0.00453   0.00436  -0.00191
  54        7D-2        0.00000   0.00000   0.00000   0.00000   0.00000
                           6         7         8         9        10
                       (PIU)--O  (PIU)--O  (PIG)--O  (PIG)--V  (SGG)--V
     Eigenvalues --    -0.55232  -0.54371  -0.25038  -0.17871   0.08141
   1 1   O  1S          0.00000   0.00000   0.00000   0.00000   0.02719
   2        2S          0.00000   0.00000   0.00000   0.00000   0.04408
   3        2PX         0.00000   0.21589   0.24943   0.00000   0.00000
   4        2PY         0.21030   0.00000   0.00000   0.24199   0.00000
   5        2PZ         0.00000   0.00000   0.00000   0.00000  -0.05190
   6        3S          0.00000   0.00000   0.00000   0.00000  -0.12607
   7        3PX         0.00000   0.31675   0.36057   0.00000   0.00000
   8        3PY         0.31482   0.00000   0.00000   0.35715   0.00000
   9        3PZ         0.00000   0.00000   0.00000   0.00000  -0.04725
  10        4S          0.00000   0.00000   0.00000   0.00000  -0.63388
  11        4PX         0.00000   0.22593   0.36296   0.00000   0.00000
  12        4PY         0.23066   0.00000   0.00000   0.37225   0.00000
  13        4PZ         0.00000   0.00000   0.00000   0.00000  -0.18224
  14        5S          0.00000   0.00000   0.00000   0.00000   0.93238
  15        5PX         0.00000   0.01463   0.11573   0.00000   0.00000
  16        5PY         0.01313   0.00000   0.00000   0.13843   0.00000
  17        5PZ         0.00000   0.00000   0.00000   0.00000   0.30699
  18        6D 0        0.00000   0.00000   0.00000   0.00000  -0.00312
  19        6D+1        0.00000  -0.00965   0.00220   0.00000   0.00000
  20        6D-1       -0.00976   0.00000   0.00000   0.00277   0.00000
  21        6D+2        0.00000   0.00000   0.00000   0.00000   0.00073
  22        6D-2        0.00000   0.00000   0.00000   0.00000   0.00000
  23        7D 0        0.00000   0.00000   0.00000   0.00000   0.00227
  24        7D+1        0.00000  -0.03104   0.00966   0.00000   0.00000
  25        7D-1       -0.03635   0.00000   0.00000   0.00859   0.00000
  26        7D+2        0.00000   0.00000   0.00000   0.00000  -0.00148
  27        7D-2        0.00000   0.00000   0.00000   0.00000   0.00000
  28 2   O  1S          0.00000   0.00000   0.00000   0.00000   0.02719
  29        2S          0.00000   0.00000   0.00000   0.00000   0.04408
  30        2PX         0.00000   0.21589  -0.24943   0.00000   0.00000
  31        2PY         0.21030   0.00000   0.00000  -0.24199   0.00000
  32        2PZ         0.00000   0.00000   0.00000   0.00000   0.05190
  33        3S          0.00000   0.00000   0.00000   0.00000  -0.12607
  34        3PX         0.00000   0.31675  -0.36057   0.00000   0.00000
  35        3PY         0.31482   0.00000   0.00000  -0.35715   0.00000
  36        3PZ         0.00000   0.00000   0.00000   0.00000   0.04725
  37        4S          0.00000   0.00000   0.00000   0.00000  -0.63388
  38        4PX         0.00000   0.22593  -0.36296   0.00000   0.00000
  39        4PY         0.23066   0.00000   0.00000  -0.37225   0.00000
  40        4PZ         0.00000   0.00000   0.00000   0.00000   0.18224
  41        5S          0.00000   0.00000   0.00000   0.00000   0.93238
  42        5PX         0.00000   0.01463  -0.11573   0.00000   0.00000
  43        5PY         0.01313   0.00000   0.00000  -0.13843   0.00000
  44        5PZ         0.00000   0.00000   0.00000   0.00000  -0.30699
  45        6D 0        0.00000   0.00000   0.00000   0.00000  -0.00312
  46        6D+1        0.00000   0.00965   0.00220   0.00000   0.00000
  47        6D-1        0.00976   0.00000   0.00000   0.00277   0.00000
  48        6D+2        0.00000   0.00000   0.00000   0.00000   0.00073
  49        6D-2        0.00000   0.00000   0.00000   0.00000   0.00000
  50        7D 0        0.00000   0.00000   0.00000   0.00000   0.00227
  51        7D+1        0.00000   0.03104   0.00966   0.00000   0.00000
  52        7D-1        0.03635   0.00000   0.00000   0.00859   0.00000
  53        7D+2        0.00000   0.00000   0.00000   0.00000  -0.00148
  54        7D-2        0.00000   0.00000   0.00000   0.00000   0.00000
                          11        12        13        14        15
                       (SGU)--V  (PIU)--V  (PIU)--V  (SGG)--V  (PIG)--V
     Eigenvalues --     0.09243   0.12471   0.13146   0.18990   0.20715
   1 1   O  1S         -0.03043   0.00000   0.00000  -0.00888   0.00000
   2        2S         -0.05115   0.00000   0.00000  -0.01369   0.00000
   3        2PX         0.00000   0.00000  -0.08102   0.00000  -0.08453
   4        2PY         0.00000  -0.08076   0.00000   0.00000   0.00000
   5        2PZ        -0.03570   0.00000   0.00000  -0.03482   0.00000
   6        3S          0.19770   0.00000   0.00000   0.02398   0.00000
   7        3PX         0.00000   0.00000  -0.08268   0.00000  -0.08668
   8        3PY         0.00000  -0.08738   0.00000   0.00000   0.00000
   9        3PZ        -0.05187   0.00000   0.00000  -0.02529   0.00000
  10        4S         -0.00346   0.00000   0.00000   0.37781   0.00000
  11        4PX         0.00000   0.00000  -0.28006   0.00000  -0.37720
  12        4PY         0.00000  -0.27412   0.00000   0.00000   0.00000
  13        4PZ         0.22238   0.00000   0.00000  -0.13486   0.00000
  14        5S          5.65221   0.00000   0.00000  -0.02429   0.00000
  15        5PX         0.00000   0.00000   0.66637   0.00000   1.90797
  16        5PY         0.00000   0.66355   0.00000   0.00000   0.00000
  17        5PZ        -2.61142   0.00000   0.00000   1.34600   0.00000
  18        6D 0       -0.00176   0.00000   0.00000   0.00788   0.00000
  19        6D+1        0.00000   0.00000   0.00435   0.00000  -0.00030
  20        6D-1        0.00000   0.00448   0.00000   0.00000   0.00000
  21        6D+2       -0.00058   0.00000   0.00000  -0.00035   0.00000
  22        6D-2        0.00000   0.00000   0.00000   0.00000   0.00000
  23        7D 0       -0.05798   0.00000   0.00000   0.02763   0.00000
  24        7D+1        0.00000   0.00000   0.01286   0.00000   0.02323
  25        7D-1        0.00000   0.01452   0.00000   0.00000   0.00000
  26        7D+2       -0.00121   0.00000   0.00000   0.00328   0.00000
  27        7D-2        0.00000   0.00000   0.00000   0.00000   0.00000
  28 2   O  1S          0.03043   0.00000   0.00000  -0.00888   0.00000
  29        2S          0.05115   0.00000   0.00000  -0.01369   0.00000
  30        2PX         0.00000   0.00000  -0.08102   0.00000   0.08453
  31        2PY         0.00000  -0.08076   0.00000   0.00000   0.00000
  32        2PZ        -0.03570   0.00000   0.00000   0.03482   0.00000
  33        3S         -0.19770   0.00000   0.00000   0.02398   0.00000
  34        3PX         0.00000   0.00000  -0.08268   0.00000   0.08668
  35        3PY         0.00000  -0.08738   0.00000   0.00000   0.00000
  36        3PZ        -0.05187   0.00000   0.00000   0.02529   0.00000
  37        4S          0.00346   0.00000   0.00000   0.37781   0.00000
  38        4PX         0.00000   0.00000  -0.28006   0.00000   0.37720
  39        4PY         0.00000  -0.27412   0.00000   0.00000   0.00000
  40        4PZ         0.22238   0.00000   0.00000   0.13486   0.00000
  41        5S         -5.65221   0.00000   0.00000  -0.02429   0.00000
  42        5PX         0.00000   0.00000   0.66637   0.00000  -1.90797
  43        5PY         0.00000   0.66355   0.00000   0.00000   0.00000
  44        5PZ        -2.61142   0.00000   0.00000  -1.34600   0.00000
  45        6D 0        0.00176   0.00000   0.00000   0.00788   0.00000
  46        6D+1        0.00000   0.00000  -0.00435   0.00000  -0.00030
  47        6D-1        0.00000  -0.00448   0.00000   0.00000   0.00000
  48        6D+2        0.00058   0.00000   0.00000  -0.00035   0.00000
  49        6D-2        0.00000   0.00000   0.00000   0.00000   0.00000
  50        7D 0        0.05798   0.00000   0.00000   0.02763   0.00000
  51        7D+1        0.00000   0.00000  -0.01286   0.00000   0.02323
  52        7D-1        0.00000  -0.01452   0.00000   0.00000   0.00000
  53        7D+2        0.00121   0.00000   0.00000   0.00328   0.00000
  54        7D-2        0.00000   0.00000   0.00000   0.00000   0.00000
                          16        17        18        19        20
                       (PIG)--V  (SGU)--V  (SGU)--V  (SGU)--V      V
     Eigenvalues --     0.20810   0.31326   0.33927   0.90149   0.91995
   1 1   O  1S          0.00000  -0.03744   0.03096  -0.00695   0.00583
   2        2S          0.00000  -0.06368   0.04995  -0.01112   0.00621
   3        2PX         0.00000   0.00000   0.00000   0.00000   0.00000
   4        2PY        -0.08810   0.00000   0.00000   0.00000   0.00000
   5        2PZ         0.00000  -0.25541   0.04877   0.21735  -0.11976
   6        3S          0.00000   0.20873  -0.10764  -0.09432   0.07925
   7        3PX         0.00000   0.00000   0.00000   0.00000   0.00000
   8        3PY        -0.09620   0.00000   0.00000   0.00000   0.00000
   9        3PZ         0.00000  -0.38062   0.12385   0.36036  -0.51082
  10        4S          0.00000   1.11354  -1.40867   3.65075   0.13219
  11        4PX         0.00000   0.00000   0.00000   0.00000   0.00000
  12        4PY        -0.37893   0.00000   0.00000   0.00000   0.00000
  13        4PZ         0.00000  -1.30153   0.26163  -3.46099   1.19833
  14        5S          0.00000   3.81122  22.52739  -0.58003  -0.18889
  15        5PX         0.00000   0.00000   0.00000   0.00000   0.00000
  16        5PY         1.90228   0.00000   0.00000   0.00000   0.00000
  17        5PZ         0.00000  -0.84748  -7.40839   0.77481  -0.89611
  18        6D 0        0.00000  -0.01705   0.00425  -0.02153   0.02863
  19        6D+1        0.00000   0.00000   0.00000   0.00000   0.00000
  20        6D-1       -0.00042   0.00000   0.00000   0.00000   0.00000
  21        6D+2        0.00000  -0.00052   0.00073  -0.00017   0.00025
  22        6D-2        0.00000   0.00000   0.00000   0.00000   0.00000
  23        7D 0        0.00000  -0.00034  -0.02987   0.36681   0.10101
  24        7D+1        0.00000   0.00000   0.00000   0.00000   0.00000
  25        7D-1        0.02309   0.00000   0.00000   0.00000   0.00000
  26        7D+2        0.00000  -0.00375   0.00028  -0.00009   0.02261
  27        7D-2        0.00000   0.00000   0.00000   0.00000   0.00000
  28 2   O  1S          0.00000   0.03744  -0.03096   0.00695   0.00583
  29        2S          0.00000   0.06368  -0.04995   0.01112   0.00621
  30        2PX         0.00000   0.00000   0.00000   0.00000   0.00000
  31        2PY         0.08810   0.00000   0.00000   0.00000   0.00000
  32        2PZ         0.00000  -0.25541   0.04877   0.21735   0.11976
  33        3S          0.00000  -0.20873   0.10764   0.09432   0.07925
  34        3PX         0.00000   0.00000   0.00000   0.00000   0.00000
  35        3PY         0.09620   0.00000   0.00000   0.00000   0.00000
  36        3PZ         0.00000  -0.38062   0.12385   0.36036   0.51082
  37        4S          0.00000  -1.11354   1.40867  -3.65075   0.13219
  38        4PX         0.00000   0.00000   0.00000   0.00000   0.00000
  39        4PY         0.37893   0.00000   0.00000   0.00000   0.00000
  40        4PZ         0.00000  -1.30153   0.26163  -3.46099  -1.19833
  41        5S          0.00000  -3.81122 -22.52739   0.58003  -0.18889
  42        5PX         0.00000   0.00000   0.00000   0.00000   0.00000
  43        5PY        -1.90228   0.00000   0.00000   0.00000   0.00000
  44        5PZ         0.00000  -0.84748  -7.40839   0.77481   0.89611
  45        6D 0        0.00000   0.01705  -0.00425   0.02153   0.02863
  46        6D+1        0.00000   0.00000   0.00000   0.00000   0.00000
  47        6D-1       -0.00042   0.00000   0.00000   0.00000   0.00000
  48        6D+2        0.00000   0.00052  -0.00073   0.00017   0.00025
  49        6D-2        0.00000   0.00000   0.00000   0.00000   0.00000
  50        7D 0        0.00000   0.00034   0.02987  -0.36681   0.10101
  51        7D+1        0.00000   0.00000   0.00000   0.00000   0.00000
  52        7D-1        0.02309   0.00000   0.00000   0.00000   0.00000
  53        7D+2        0.00000   0.00375  -0.00028   0.00009   0.02261
  54        7D-2        0.00000   0.00000   0.00000   0.00000   0.00000
                          21        22        23        24        25
                       (PIU)--V  (PIU)--V  (PIG)--V  (PIG)--V      V
     Eigenvalues --     0.92133   0.93950   1.00767   1.01956   1.13973
   1 1   O  1S          0.00000   0.00000   0.00000   0.00000   0.07683
   2        2S          0.00000   0.00000   0.00000   0.00000   0.15205
   3        2PX         0.00000  -0.18078   0.00000  -0.17816   0.00000
   4        2PY        -0.18043   0.00000  -0.17969   0.00000   0.00000
   5        2PZ         0.00000   0.00000   0.00000   0.00000  -0.04718
   6        3S          0.00000   0.00000   0.00000   0.00000  -1.12500
   7        3PX         0.00000  -0.57952   0.00000  -0.56063   0.00000
   8        3PY        -0.58367   0.00000  -0.56595   0.00000   0.00000
   9        3PZ         0.00000   0.00000   0.00000   0.00000  -0.12138
  10        4S          0.00000   0.00000   0.00000   0.00000   1.63417
  11        4PX         0.00000   1.02232   0.00000   1.60314   0.00000
  12        4PY         1.02296   0.00000   1.60136   0.00000   0.00000
  13        4PZ         0.00000   0.00000   0.00000   0.00000   0.18526
  14        5S          0.00000   0.00000   0.00000   0.00000  -0.66983
  15        5PX         0.00000  -0.46683   0.00000  -1.15052   0.00000
  16        5PY        -0.47064   0.00000  -1.15730   0.00000   0.00000
  17        5PZ         0.00000   0.00000   0.00000   0.00000   0.20032
  18        6D 0        0.00000   0.00000   0.00000   0.00000  -0.00882
  19        6D+1        0.00000   0.00550   0.00000   0.01499   0.00000
  20        6D-1        0.00591   0.00000   0.01487   0.00000   0.00000
  21        6D+2        0.00000   0.00000   0.00000   0.00000   0.00070
  22        6D-2        0.00000   0.00000   0.00000   0.00000   0.00000
  23        7D 0        0.00000   0.00000   0.00000   0.00000  -0.20616
  24        7D+1        0.00000   0.07924   0.00000  -0.02852   0.00000
  25        7D-1        0.07786   0.00000  -0.02951   0.00000   0.00000
  26        7D+2        0.00000   0.00000   0.00000   0.00000  -0.13778
  27        7D-2        0.00000   0.00000   0.00000   0.00000   0.00000
  28 2   O  1S          0.00000   0.00000   0.00000   0.00000   0.07683
  29        2S          0.00000   0.00000   0.00000   0.00000   0.15205
  30        2PX         0.00000  -0.18078   0.00000   0.17816   0.00000
  31        2PY        -0.18043   0.00000   0.17969   0.00000   0.00000
  32        2PZ         0.00000   0.00000   0.00000   0.00000   0.04718
  33        3S          0.00000   0.00000   0.00000   0.00000  -1.12500
  34        3PX         0.00000  -0.57952   0.00000   0.56063   0.00000
  35        3PY        -0.58367   0.00000   0.56595   0.00000   0.00000
  36        3PZ         0.00000   0.00000   0.00000   0.00000   0.12138
  37        4S          0.00000   0.00000   0.00000   0.00000   1.63417
  38        4PX         0.00000   1.02232   0.00000  -1.60314   0.00000
  39        4PY         1.02296   0.00000  -1.60136   0.00000   0.00000
  40        4PZ         0.00000   0.00000   0.00000   0.00000  -0.18526
  41        5S          0.00000   0.00000   0.00000   0.00000  -0.66983
  42        5PX         0.00000  -0.46683   0.00000   1.15052   0.00000
  43        5PY        -0.47064   0.00000   1.15730   0.00000   0.00000
  44        5PZ         0.00000   0.00000   0.00000   0.00000  -0.20032
  45        6D 0        0.00000   0.00000   0.00000   0.00000  -0.00882
  46        6D+1        0.00000  -0.00550   0.00000   0.01499   0.00000
  47        6D-1       -0.00591   0.00000   0.01487   0.00000   0.00000
  48        6D+2        0.00000   0.00000   0.00000   0.00000   0.00070
  49        6D-2        0.00000   0.00000   0.00000   0.00000   0.00000
  50        7D 0        0.00000   0.00000   0.00000   0.00000  -0.20616
  51        7D+1        0.00000  -0.07924   0.00000  -0.02852   0.00000
  52        7D-1       -0.07786   0.00000  -0.02951   0.00000   0.00000
  53        7D+2        0.00000   0.00000   0.00000   0.00000  -0.13778
  54        7D-2        0.00000   0.00000   0.00000   0.00000   0.00000
                          26        27        28        29        30
                           V         V     (PIU)--V  (PIU)--V      V
     Eigenvalues --     1.20196   1.20676   1.30153   1.33040   1.48674
   1 1   O  1S          0.00000   0.01599   0.00000   0.00000  -0.08204
   2        2S          0.00000   0.03228   0.00000   0.00000  -0.16649
   3        2PX         0.00000   0.00000   0.00000   0.07540   0.00000
   4        2PY         0.00000   0.00000   0.07669   0.00000   0.00000
   5        2PZ         0.00000  -0.00596   0.00000   0.00000  -0.02065
   6        3S          0.00000  -0.24838   0.00000   0.00000   1.49955
   7        3PX         0.00000   0.00000   0.00000   0.14571   0.00000
   8        3PY         0.00000   0.00000   0.14876   0.00000   0.00000
   9        3PZ         0.00000  -0.00664   0.00000   0.00000   0.18550
  10        4S          0.00000   0.35372   0.00000   0.00000  -5.35081
  11        4PX         0.00000   0.00000   0.00000   0.03947   0.00000
  12        4PY         0.00000   0.00000   0.04419   0.00000   0.00000
  13        4PZ         0.00000  -0.00406   0.00000   0.00000   2.00303
  14        5S          0.00000  -0.13807   0.00000   0.00000  11.55743
  15        5PX         0.00000   0.00000   0.00000  -0.03814   0.00000
  16        5PY         0.00000   0.00000  -0.04032   0.00000   0.00000
  17        5PZ         0.00000   0.07095   0.00000   0.00000  -3.62085
  18        6D 0        0.00000  -0.00270   0.00000   0.00000   0.01544
  19        6D+1        0.00000   0.00000   0.00000   0.02484   0.00000
  20        6D-1        0.00000   0.00000   0.02436   0.00000   0.00000
  21        6D+2        0.00000   0.00609   0.00000   0.00000  -0.00151
  22        6D-2        0.00594   0.00000   0.00000   0.00000   0.00000
  23        7D 0        0.00000  -0.04699   0.00000   0.00000  -0.14738
  24        7D+1        0.00000   0.00000   0.00000   0.59201   0.00000
  25        7D-1        0.00000   0.00000   0.59202   0.00000   0.00000
  26        7D+2        0.00000   0.62475   0.00000   0.00000   0.06105
  27        7D-2        0.64013   0.00000   0.00000   0.00000   0.00000
  28 2   O  1S          0.00000   0.01599   0.00000   0.00000   0.08204
  29        2S          0.00000   0.03228   0.00000   0.00000   0.16649
  30        2PX         0.00000   0.00000   0.00000   0.07540   0.00000
  31        2PY         0.00000   0.00000   0.07669   0.00000   0.00000
  32        2PZ         0.00000   0.00596   0.00000   0.00000  -0.02065
  33        3S          0.00000  -0.24838   0.00000   0.00000  -1.49955
  34        3PX         0.00000   0.00000   0.00000   0.14571   0.00000
  35        3PY         0.00000   0.00000   0.14876   0.00000   0.00000
  36        3PZ         0.00000   0.00664   0.00000   0.00000   0.18550
  37        4S          0.00000   0.35372   0.00000   0.00000   5.35081
  38        4PX         0.00000   0.00000   0.00000   0.03947   0.00000
  39        4PY         0.00000   0.00000   0.04419   0.00000   0.00000
  40        4PZ         0.00000   0.00406   0.00000   0.00000   2.00303
  41        5S          0.00000  -0.13807   0.00000   0.00000 -11.55743
  42        5PX         0.00000   0.00000   0.00000  -0.03814   0.00000
  43        5PY         0.00000   0.00000  -0.04032   0.00000   0.00000
  44        5PZ         0.00000  -0.07095   0.00000   0.00000  -3.62085
  45        6D 0        0.00000  -0.00270   0.00000   0.00000  -0.01544
  46        6D+1        0.00000   0.00000   0.00000  -0.02484   0.00000
  47        6D-1        0.00000   0.00000  -0.02436   0.00000   0.00000
  48        6D+2        0.00000   0.00609   0.00000   0.00000   0.00151
  49        6D-2        0.00594   0.00000   0.00000   0.00000   0.00000
  50        7D 0        0.00000  -0.04699   0.00000   0.00000   0.14738
  51        7D+1        0.00000   0.00000   0.00000  -0.59201   0.00000
  52        7D-1        0.00000   0.00000  -0.59202   0.00000   0.00000
  53        7D+2        0.00000   0.62475   0.00000   0.00000  -0.06105
  54        7D-2        0.64013   0.00000   0.00000   0.00000   0.00000
                          31        32        33        34        35
                           V         V     (PIG)--V  (SGG)--V  (PIG)--V
     Eigenvalues --     1.63732   1.63982   2.25082   2.26913   2.27738
   1 1   O  1S          0.00000  -0.00519   0.00000  -0.04365   0.00000
   2        2S          0.00000  -0.01108   0.00000  -0.09784   0.00000
   3        2PX         0.00000   0.00000   0.00000   0.00000  -0.03977
   4        2PY         0.00000   0.00000  -0.03836   0.00000   0.00000
   5        2PZ         0.00000   0.00078   0.00000  -0.03780   0.00000
   6        3S          0.00000   0.11247   0.00000   0.97668   0.00000
   7        3PX         0.00000   0.00000   0.00000   0.00000  -0.01787
   8        3PY         0.00000   0.00000  -0.02018   0.00000   0.00000
   9        3PZ         0.00000   0.02409   0.00000  -0.56357   0.00000
  10        4S          0.00000  -0.48643   0.00000  -0.43984   0.00000
  11        4PX         0.00000   0.00000   0.00000   0.00000  -0.95223
  12        4PY         0.00000   0.00000  -0.94966   0.00000   0.00000
  13        4PZ         0.00000   0.20041   0.00000   0.81645   0.00000
  14        5S          0.00000   0.90989   0.00000   0.00836   0.00000
  15        5PX         0.00000   0.00000   0.00000   0.00000   0.29802
  16        5PY         0.00000   0.00000   0.29667   0.00000   0.00000
  17        5PZ         0.00000  -0.28863   0.00000  -0.25661   0.00000
  18        6D 0        0.00000   0.00132   0.00000  -0.01923   0.00000
  19        6D+1        0.00000   0.00000   0.00000   0.00000   0.00334
  20        6D-1        0.00000   0.00000   0.00342   0.00000   0.00000
  21        6D+2        0.00000  -0.01015   0.00000  -0.00195   0.00000
  22        6D-2        0.01016   0.00000   0.00000   0.00000   0.00000
  23        7D 0        0.00000  -0.02877   0.00000  -0.88162   0.00000
  24        7D+1        0.00000   0.00000   0.00000   0.00000   1.24131
  25        7D-1        0.00000   0.00000   1.24145   0.00000   0.00000
  26        7D+2        0.00000  -0.78819   0.00000   0.00228   0.00000
  27        7D-2        0.79054   0.00000   0.00000   0.00000   0.00000
  28 2   O  1S          0.00000   0.00519   0.00000  -0.04365   0.00000
  29        2S          0.00000   0.01108   0.00000  -0.09784   0.00000
  30        2PX         0.00000   0.00000   0.00000   0.00000   0.03977
  31        2PY         0.00000   0.00000   0.03836   0.00000   0.00000
  32        2PZ         0.00000   0.00078   0.00000   0.03780   0.00000
  33        3S          0.00000  -0.11247   0.00000   0.97668   0.00000
  34        3PX         0.00000   0.00000   0.00000   0.00000   0.01787
  35        3PY         0.00000   0.00000   0.02018   0.00000   0.00000
  36        3PZ         0.00000   0.02409   0.00000   0.56357   0.00000
  37        4S          0.00000   0.48643   0.00000  -0.43984   0.00000
  38        4PX         0.00000   0.00000   0.00000   0.00000   0.95223
  39        4PY         0.00000   0.00000   0.94966   0.00000   0.00000
  40        4PZ         0.00000   0.20041   0.00000  -0.81645   0.00000
  41        5S          0.00000  -0.90989   0.00000   0.00836   0.00000
  42        5PX         0.00000   0.00000   0.00000   0.00000  -0.29802
  43        5PY         0.00000   0.00000  -0.29667   0.00000   0.00000
  44        5PZ         0.00000  -0.28863   0.00000   0.25661   0.00000
  45        6D 0        0.00000  -0.00132   0.00000  -0.01923   0.00000
  46        6D+1        0.00000   0.00000   0.00000   0.00000   0.00334
  47        6D-1        0.00000   0.00000   0.00342   0.00000   0.00000
  48        6D+2        0.00000   0.01015   0.00000  -0.00195   0.00000
  49        6D-2       -0.01016   0.00000   0.00000   0.00000   0.00000
  50        7D 0        0.00000   0.02877   0.00000  -0.88162   0.00000
  51        7D+1        0.00000   0.00000   0.00000   0.00000   1.24131
  52        7D-1        0.00000   0.00000   1.24145   0.00000   0.00000
  53        7D+2        0.00000   0.78819   0.00000   0.00228   0.00000
  54        7D-2       -0.79054   0.00000   0.00000   0.00000   0.00000
                          36        37        38        39        40
                       (SGU)--V  (PIU)--V  (PIU)--V  (SGG)--V  (PIG)--V
     Eigenvalues --     2.48440   4.69554   4.71978   4.79367   4.97278
   1 1   O  1S         -0.01089   0.00000   0.00000  -0.00797   0.00000
   2        2S         -0.01901   0.00000   0.00000  -0.00786   0.00000
   3        2PX         0.00000   0.00000  -0.89406   0.00000   0.00000
   4        2PY         0.00000  -0.89537   0.00000   0.00000  -0.90824
   5        2PZ        -0.19827   0.00000   0.00000  -0.89310   0.00000
   6        3S         -0.28998   0.00000   0.00000  -0.05819   0.00000
   7        3PX         0.00000   0.00000   1.05891   0.00000   0.00000
   8        3PY         0.00000   1.05640   0.00000   0.00000   1.13798
   9        3PZ        -0.71701   0.00000   0.00000   1.00194   0.00000
  10        4S          6.65052   0.00000   0.00000  -0.10560   0.00000
  11        4PX         0.00000   0.00000  -0.53231   0.00000   0.00000
  12        4PY         0.00000  -0.53172   0.00000   0.00000  -0.68234
  13        4PZ        -3.97952   0.00000   0.00000  -0.66229   0.00000
  14        5S         -3.96570   0.00000   0.00000   0.10518   0.00000
  15        5PX         0.00000   0.00000   0.17622   0.00000   0.00000
  16        5PY         0.00000   0.17631   0.00000   0.00000   0.39361
  17        5PZ         1.53079   0.00000   0.00000   0.28072   0.00000
  18        6D 0       -0.00149   0.00000   0.00000  -0.12391   0.00000
  19        6D+1        0.00000   0.00000  -0.01740   0.00000   0.00000
  20        6D-1        0.00000  -0.01736   0.00000   0.00000   0.01729
  21        6D+2        0.00021   0.00000   0.00000  -0.00101   0.00000
  22        6D-2        0.00000   0.00000   0.00000   0.00000   0.00000
  23        7D 0        1.66920   0.00000   0.00000   0.20329   0.00000
  24        7D+1        0.00000   0.00000   0.06694   0.00000   0.00000
  25        7D-1        0.00000   0.06676   0.00000   0.00000  -0.14209
  26        7D+2       -0.00817   0.00000   0.00000   0.00035   0.00000
  27        7D-2        0.00000   0.00000   0.00000   0.00000   0.00000
  28 2   O  1S          0.01089   0.00000   0.00000  -0.00797   0.00000
  29        2S          0.01901   0.00000   0.00000  -0.00786   0.00000
  30        2PX         0.00000   0.00000  -0.89406   0.00000   0.00000
  31        2PY         0.00000  -0.89537   0.00000   0.00000   0.90824
  32        2PZ        -0.19827   0.00000   0.00000   0.89310   0.00000
  33        3S          0.28998   0.00000   0.00000  -0.05819   0.00000
  34        3PX         0.00000   0.00000   1.05891   0.00000   0.00000
  35        3PY         0.00000   1.05640   0.00000   0.00000  -1.13798
  36        3PZ        -0.71701   0.00000   0.00000  -1.00194   0.00000
  37        4S         -6.65052   0.00000   0.00000  -0.10560   0.00000
  38        4PX         0.00000   0.00000  -0.53231   0.00000   0.00000
  39        4PY         0.00000  -0.53172   0.00000   0.00000   0.68234
  40        4PZ        -3.97952   0.00000   0.00000   0.66229   0.00000
  41        5S          3.96570   0.00000   0.00000   0.10518   0.00000
  42        5PX         0.00000   0.00000   0.17622   0.00000   0.00000
  43        5PY         0.00000   0.17631   0.00000   0.00000  -0.39361
  44        5PZ         1.53079   0.00000   0.00000  -0.28072   0.00000
  45        6D 0        0.00149   0.00000   0.00000  -0.12391   0.00000
  46        6D+1        0.00000   0.00000   0.01740   0.00000   0.00000
  47        6D-1        0.00000   0.01736   0.00000   0.00000   0.01729
  48        6D+2       -0.00021   0.00000   0.00000  -0.00101   0.00000
  49        6D-2        0.00000   0.00000   0.00000   0.00000   0.00000
  50        7D 0       -1.66920   0.00000   0.00000   0.20329   0.00000
  51        7D+1        0.00000   0.00000  -0.06694   0.00000   0.00000
  52        7D-1        0.00000  -0.06676   0.00000   0.00000  -0.14209
  53        7D+2        0.00817   0.00000   0.00000   0.00035   0.00000
  54        7D-2        0.00000   0.00000   0.00000   0.00000   0.00000
                          41        42        43        44        45
                       (PIG)--V  (SGU)--V      V         V     (DLTU)--
     Eigenvalues --     4.99968   6.20829   6.52887   6.53224   6.65210
   1 1   O  1S          0.00000  -0.02715   0.00000  -0.00106   0.00000
   2        2S          0.00000  -0.04227   0.00000  -0.00200   0.00000
   3        2PX        -0.90681   0.00000   0.00000   0.00000   0.00000
   4        2PY         0.00000   0.00000   0.00000   0.00000   0.00000
   5        2PZ         0.00000   0.96500   0.00000  -0.01183   0.00000
   6        3S          0.00000  -0.06260   0.00000   0.02727   0.00000
   7        3PX         1.14032   0.00000   0.00000   0.00000   0.00000
   8        3PY         0.00000   0.00000   0.00000   0.00000   0.00000
   9        3PZ         0.00000  -2.09214   0.00000  -0.00020   0.00000
  10        4S          0.00000   4.41841   0.00000  -0.00697   0.00000
  11        4PX        -0.68061   0.00000   0.00000   0.00000   0.00000
  12        4PY         0.00000   0.00000   0.00000   0.00000   0.00000
  13        4PZ         0.00000  -1.90883   0.00000   0.01169   0.00000
  14        5S          0.00000  -4.03179   0.00000  -0.00169   0.00000
  15        5PX         0.39228   0.00000   0.00000   0.00000   0.00000
  16        5PY         0.00000   0.00000   0.00000   0.00000   0.00000
  17        5PZ         0.00000   1.28980   0.00000   0.00299   0.00000
  18        6D 0        0.00000  -0.19073   0.00000   0.05176   0.00000
  19        6D+1        0.01721   0.00000   0.00000   0.00000   0.00000
  20        6D-1        0.00000   0.00000   0.00000   0.00000   0.00000
  21        6D+2        0.00000  -0.00946   0.00000   0.78959   0.00000
  22        6D-2        0.00000   0.00000   0.79110   0.00000   0.80342
  23        7D 0        0.00000   1.25920   0.00000  -0.04241   0.00000
  24        7D+1       -0.14408   0.00000   0.00000   0.00000   0.00000
  25        7D-1        0.00000   0.00000   0.00000   0.00000   0.00000
  26        7D+2        0.00000   0.00469   0.00000  -0.32808   0.00000
  27        7D-2        0.00000   0.00000  -0.32881   0.00000  -0.43767
  28 2   O  1S          0.00000   0.02715   0.00000  -0.00106   0.00000
  29        2S          0.00000   0.04227   0.00000  -0.00200   0.00000
  30        2PX         0.90681   0.00000   0.00000   0.00000   0.00000
  31        2PY         0.00000   0.00000   0.00000   0.00000   0.00000
  32        2PZ         0.00000   0.96500   0.00000   0.01183   0.00000
  33        3S          0.00000   0.06260   0.00000   0.02727   0.00000
  34        3PX        -1.14032   0.00000   0.00000   0.00000   0.00000
  35        3PY         0.00000   0.00000   0.00000   0.00000   0.00000
  36        3PZ         0.00000  -2.09214   0.00000   0.00020   0.00000
  37        4S          0.00000  -4.41841   0.00000  -0.00697   0.00000
  38        4PX         0.68061   0.00000   0.00000   0.00000   0.00000
  39        4PY         0.00000   0.00000   0.00000   0.00000   0.00000
  40        4PZ         0.00000  -1.90883   0.00000  -0.01169   0.00000
  41        5S          0.00000   4.03179   0.00000  -0.00169   0.00000
  42        5PX        -0.39228   0.00000   0.00000   0.00000   0.00000
  43        5PY         0.00000   0.00000   0.00000   0.00000   0.00000
  44        5PZ         0.00000   1.28980   0.00000  -0.00299   0.00000
  45        6D 0        0.00000   0.19073   0.00000   0.05176   0.00000
  46        6D+1        0.01721   0.00000   0.00000   0.00000   0.00000
  47        6D-1        0.00000   0.00000   0.00000   0.00000   0.00000
  48        6D+2        0.00000   0.00946   0.00000   0.78959   0.00000
  49        6D-2        0.00000   0.00000   0.79110   0.00000  -0.80342
  50        7D 0        0.00000  -1.25920   0.00000  -0.04241   0.00000
  51        7D+1       -0.14408   0.00000   0.00000   0.00000   0.00000
  52        7D-1        0.00000   0.00000   0.00000   0.00000   0.00000
  53        7D+2        0.00000  -0.00469   0.00000  -0.32808   0.00000
  54        7D-2        0.00000   0.00000  -0.32881   0.00000   0.43767
                          46        47        48        49        50
                       (DLTU)--  (PIU)--V  (PIU)--V      V     (PIG)--V
     Eigenvalues --     6.65605   6.69205   6.71970   6.74674   6.78312
   1 1   O  1S         -0.00117   0.00000   0.00000  -0.00675   0.00000
   2        2S         -0.00122   0.00000   0.00000  -0.02210   0.00000
   3        2PX         0.00000   0.00000  -0.01598   0.00000   0.00000
   4        2PY         0.00000  -0.01589   0.00000   0.00000   0.01343
   5        2PZ         0.01619   0.00000   0.00000  -0.17461   0.00000
   6        3S          0.00570   0.00000   0.00000   0.34624   0.00000
   7        3PX         0.00000   0.00000  -0.01625   0.00000   0.00000
   8        3PY         0.00000  -0.01598   0.00000   0.00000   0.03057
   9        3PZ        -0.02945   0.00000   0.00000  -0.00786   0.00000
  10        4S          0.01018   0.00000   0.00000  -0.04352   0.00000
  11        4PX         0.00000   0.00000  -0.05771   0.00000   0.00000
  12        4PY         0.00000  -0.05822   0.00000   0.00000   0.38002
  13        4PZ         0.00493   0.00000   0.00000   0.17566   0.00000
  14        5S         -0.03148   0.00000   0.00000  -0.04370   0.00000
  15        5PX         0.00000   0.00000   0.02845   0.00000   0.00000
  16        5PY         0.00000   0.02866   0.00000   0.00000  -0.09654
  17        5PZ         0.00780   0.00000   0.00000   0.05461   0.00000
  18        6D 0        0.01485   0.00000   0.00000   0.84087   0.00000
  19        6D+1        0.00000   0.00000   0.81142   0.00000   0.00000
  20        6D-1        0.00000   0.81143   0.00000   0.00000   0.81815
  21        6D+2        0.80318   0.00000   0.00000  -0.04877   0.00000
  22        6D-2        0.00000   0.00000   0.00000   0.00000   0.00000
  23        7D 0        0.00331   0.00000   0.00000  -0.66441   0.00000
  24        7D+1        0.00000   0.00000  -0.37733   0.00000   0.00000
  25        7D-1        0.00000  -0.37710   0.00000   0.00000  -0.68740
  26        7D+2       -0.43741   0.00000   0.00000   0.02009   0.00000
  27        7D-2        0.00000   0.00000   0.00000   0.00000   0.00000
  28 2   O  1S          0.00117   0.00000   0.00000  -0.00675   0.00000
  29        2S          0.00122   0.00000   0.00000  -0.02210   0.00000
  30        2PX         0.00000   0.00000  -0.01598   0.00000   0.00000
  31        2PY         0.00000  -0.01589   0.00000   0.00000  -0.01343
  32        2PZ         0.01619   0.00000   0.00000   0.17461   0.00000
  33        3S         -0.00570   0.00000   0.00000   0.34624   0.00000
  34        3PX         0.00000   0.00000  -0.01625   0.00000   0.00000
  35        3PY         0.00000  -0.01598   0.00000   0.00000  -0.03057
  36        3PZ        -0.02945   0.00000   0.00000   0.00786   0.00000
  37        4S         -0.01018   0.00000   0.00000  -0.04352   0.00000
  38        4PX         0.00000   0.00000  -0.05771   0.00000   0.00000
  39        4PY         0.00000  -0.05822   0.00000   0.00000  -0.38002
  40        4PZ         0.00493   0.00000   0.00000  -0.17566   0.00000
  41        5S          0.03148   0.00000   0.00000  -0.04370   0.00000
  42        5PX         0.00000   0.00000   0.02845   0.00000   0.00000
  43        5PY         0.00000   0.02866   0.00000   0.00000   0.09654
  44        5PZ         0.00780   0.00000   0.00000  -0.05461   0.00000
  45        6D 0       -0.01485   0.00000   0.00000   0.84087   0.00000
  46        6D+1        0.00000   0.00000  -0.81142   0.00000   0.00000
  47        6D-1        0.00000  -0.81143   0.00000   0.00000   0.81815
  48        6D+2       -0.80318   0.00000   0.00000  -0.04877   0.00000
  49        6D-2        0.00000   0.00000   0.00000   0.00000   0.00000
  50        7D 0       -0.00331   0.00000   0.00000  -0.66441   0.00000
  51        7D+1        0.00000   0.00000   0.37733   0.00000   0.00000
  52        7D-1        0.00000   0.37710   0.00000   0.00000  -0.68740
  53        7D+2        0.43741   0.00000   0.00000   0.02009   0.00000
  54        7D-2        0.00000   0.00000   0.00000   0.00000   0.00000
                          51        52        53        54
                       (PIG)--V  (SGU)--V  (SGG)--V  (SGU)--V
     Eigenvalues --     6.80840   7.26367  49.66100  49.77764
   1 1   O  1S          0.00000   0.01163  -1.58906  -1.58853
   2        2S          0.00000   0.00914   1.65241   1.65740
   3        2PX         0.01348   0.00000   0.00000   0.00000
   4        2PY         0.00000   0.00000   0.00000   0.00000
   5        2PZ         0.00000  -0.23095   0.00775  -0.03159
   6        3S          0.00000  -0.05713  -0.22162  -0.21039
   7        3PX         0.03085   0.00000   0.00000   0.00000
   8        3PY         0.00000   0.00000   0.00000   0.00000
   9        3PZ         0.00000   0.25695   0.01522   0.08984
  10        4S          0.00000   1.28507   0.16879   0.19973
  11        4PX         0.37992   0.00000   0.00000   0.00000
  12        4PY         0.00000   0.00000   0.00000   0.00000
  13        4PZ         0.00000  -1.02050  -0.03816  -0.02737
  14        5S          0.00000   0.17940  -0.04949  -0.72899
  15        5PX        -0.09652   0.00000   0.00000   0.00000
  16        5PY         0.00000   0.00000   0.00000   0.00000
  17        5PZ         0.00000   0.05309   0.02954   0.22038
  18        6D 0        0.00000  -0.80326  -0.01486  -0.00138
  19        6D+1        0.81816   0.00000   0.00000   0.00000
  20        6D-1        0.00000   0.00000   0.00000   0.00000
  21        6D+2        0.00000   0.01707  -0.00010  -0.00011
  22        6D-2        0.00000   0.00000   0.00000   0.00000
  23        7D 0        0.00000   0.49375   0.05061  -0.05676
  24        7D+1       -0.68726   0.00000   0.00000   0.00000
  25        7D-1        0.00000   0.00000   0.00000   0.00000
  26        7D+2        0.00000  -0.00920   0.00002   0.00003
  27        7D-2        0.00000   0.00000   0.00000   0.00000
  28 2   O  1S          0.00000  -0.01163  -1.58906   1.58853
  29        2S          0.00000  -0.00914   1.65241  -1.65740
  30        2PX        -0.01348   0.00000   0.00000   0.00000
  31        2PY         0.00000   0.00000   0.00000   0.00000
  32        2PZ         0.00000  -0.23095  -0.00775  -0.03159
  33        3S          0.00000   0.05713  -0.22162   0.21039
  34        3PX        -0.03085   0.00000   0.00000   0.00000
  35        3PY         0.00000   0.00000   0.00000   0.00000
  36        3PZ         0.00000   0.25695  -0.01522   0.08984
  37        4S          0.00000  -1.28507   0.16879  -0.19973
  38        4PX        -0.37992   0.00000   0.00000   0.00000
  39        4PY         0.00000   0.00000   0.00000   0.00000
  40        4PZ         0.00000  -1.02050   0.03816  -0.02737
  41        5S          0.00000  -0.17940  -0.04949   0.72899
  42        5PX         0.09652   0.00000   0.00000   0.00000
  43        5PY         0.00000   0.00000   0.00000   0.00000
  44        5PZ         0.00000   0.05309  -0.02954   0.22038
  45        6D 0        0.00000   0.80326  -0.01486   0.00138
  46        6D+1        0.81816   0.00000   0.00000   0.00000
  47        6D-1        0.00000   0.00000   0.00000   0.00000
  48        6D+2        0.00000  -0.01707  -0.00010   0.00011
  49        6D-2        0.00000   0.00000   0.00000   0.00000
  50        7D 0        0.00000  -0.49375   0.05061   0.05676
  51        7D+1       -0.68726   0.00000   0.00000   0.00000
  52        7D-1        0.00000   0.00000   0.00000   0.00000
  53        7D+2        0.00000   0.00920   0.00002  -0.00003
  54        7D-2        0.00000   0.00000   0.00000   0.00000
     Density Matrix:
                           1         2         3         4         5
   1 1   O  1S          0.64090
   2        2S          0.57131   0.52730
   3        2PX        -0.00000  -0.00000   0.21765
   4        2PY        -0.00000  -0.00000   0.00000   0.08845
   5        2PZ        -0.01350  -0.02096  -0.00000   0.00000   0.11920
   6        3S         -0.14485  -0.24424   0.00000   0.00000   0.05987
   7        3PX        -0.00000  -0.00000   0.31664   0.00000  -0.00000
   8        3PY        -0.00000  -0.00000   0.00000   0.13241   0.00000
   9        3PZ        -0.01441  -0.02369  -0.00000   0.00000   0.17298
  10        4S         -0.14111  -0.22108   0.00000   0.00000   0.12350
  11        4PX        -0.00000  -0.00000   0.27862   0.00000  -0.00000
  12        4PY        -0.00000  -0.00000   0.00000   0.09701  -0.00000
  13        4PZ        -0.00808  -0.01459  -0.00000  -0.00000   0.09311
  14        5S          0.04152   0.05576  -0.00000  -0.00000  -0.00169
  15        5PX        -0.00000  -0.00000   0.06405   0.00000  -0.00000
  16        5PY        -0.00000  -0.00000   0.00000   0.00552   0.00000
  17        5PZ        -0.01671  -0.02347  -0.00000   0.00000   0.00754
  18        6D 0       -0.00011  -0.00041  -0.00000  -0.00000  -0.00742
  19        6D+1       -0.00000  -0.00000  -0.00307   0.00000  -0.00000
  20        6D-1        0.00000  -0.00000   0.00000  -0.00411  -0.00000
  21        6D+2        0.00031   0.00055  -0.00000   0.00000  -0.00020
  22        6D-2        0.00000   0.00000  -0.00000  -0.00000   0.00000
  23        7D 0       -0.00176  -0.00255   0.00000   0.00000  -0.01310
  24        7D+1       -0.00000  -0.00000  -0.00858   0.00000  -0.00000
  25        7D-1       -0.00000  -0.00000   0.00000  -0.01529  -0.00000
  26        7D+2        0.00175   0.00277  -0.00000   0.00000  -0.00063
  27        7D-2        0.00000   0.00000  -0.00000  -0.00000   0.00000
  28 2   O  1S          0.00014  -0.00004   0.00000   0.00000   0.01372
  29        2S         -0.00004  -0.00058   0.00000   0.00000   0.02207
  30        2PX        -0.00000  -0.00000  -0.03121   0.00000  -0.00000
  31        2PY        -0.00000  -0.00000   0.00000   0.08845  -0.00000
  32        2PZ        -0.01372  -0.02207  -0.00000  -0.00000  -0.09894
  33        3S          0.00355   0.00728  -0.00000  -0.00000  -0.06779
  34        3PX        -0.00000  -0.00000  -0.04311   0.00000  -0.00000
  35        3PY        -0.00000  -0.00000   0.00000   0.13241  -0.00000
  36        3PZ        -0.01941  -0.03051  -0.00000  -0.00000  -0.14707
  37        4S          0.03510   0.05565  -0.00000  -0.00000  -0.00576
  38        4PX         0.00000   0.00000  -0.08351   0.00000  -0.00000
  39        4PY         0.00000   0.00000   0.00000   0.09701  -0.00000
  40        4PZ         0.00284   0.00407  -0.00000  -0.00000  -0.08694
  41        5S         -0.04182  -0.05774   0.00000   0.00000   0.04175
  42        5PX        -0.00000  -0.00000  -0.05142   0.00000   0.00000
  43        5PY        -0.00000  -0.00000   0.00000   0.00552   0.00000
  44        5PZ        -0.01236  -0.01713   0.00000   0.00000   0.00865
  45        6D 0       -0.00192  -0.00314  -0.00000  -0.00000  -0.00621
  46        6D+1       -0.00000  -0.00000   0.00527   0.00000  -0.00000
  47        6D-1       -0.00000  -0.00000   0.00000   0.00411  -0.00000
  48        6D+2       -0.00000  -0.00001   0.00000  -0.00000   0.00010
  49        6D-2        0.00000   0.00000   0.00000   0.00000   0.00000
  50        7D 0       -0.00373  -0.00526  -0.00000  -0.00000  -0.01205
  51        7D+1       -0.00000  -0.00000   0.01822   0.00000  -0.00000
  52        7D-1       -0.00000  -0.00000   0.00000   0.01529  -0.00000
  53        7D+2        0.00009   0.00014   0.00000  -0.00000   0.00061
  54        7D-2        0.00000   0.00000   0.00000   0.00000   0.00000
                           6         7         8         9        10
   6        3S          0.76790
   7        3PX         0.00000   0.46069
   8        3PY         0.00000   0.00000   0.19822
   9        3PZ         0.07211  -0.00000   0.00000   0.25140
  10        4S          0.64182   0.00000   0.00000   0.16657   0.59783
  11        4PX         0.00000   0.40488   0.00000  -0.00000   0.00000
  12        4PY         0.00000   0.00000   0.14523  -0.00000   0.00000
  13        4PZ         0.04793  -0.00000  -0.00000   0.13571   0.08881
  14        5S         -0.13119   0.00000   0.00000   0.00157  -0.12401
  15        5PX         0.00000   0.09273   0.00000  -0.00000   0.00000
  16        5PY         0.00000   0.00000   0.00826   0.00000   0.00000
  17        5PZ         0.05911  -0.00000   0.00000   0.00944   0.05670
  18        6D 0        0.00194  -0.00000  -0.00000  -0.01083  -0.00398
  19        6D+1        0.00000  -0.00452   0.00000  -0.00000  -0.00000
  20        6D-1        0.00000   0.00000  -0.00615  -0.00000  -0.00000
  21        6D+2       -0.00182  -0.00000   0.00000  -0.00025  -0.00155
  22        6D-2        0.00000  -0.00000  -0.00000   0.00000   0.00000
  23        7D 0        0.00661   0.00000   0.00000  -0.01922  -0.00399
  24        7D+1        0.00000  -0.01270   0.00000  -0.00000  -0.00000
  25        7D-1        0.00000   0.00000  -0.02289  -0.00000  -0.00000
  26        7D+2       -0.00811  -0.00000   0.00000  -0.00077  -0.00669
  27        7D-2        0.00000  -0.00000  -0.00000   0.00000   0.00000
  28 2   O  1S          0.00355   0.00000   0.00000   0.01941   0.03510
  29        2S          0.00728   0.00000   0.00000   0.03051   0.05565
  30        2PX         0.00000  -0.04311   0.00000  -0.00000   0.00000
  31        2PY         0.00000   0.00000   0.13241  -0.00000   0.00000
  32        2PZ         0.06779  -0.00000  -0.00000  -0.14707   0.00576
  33        3S         -0.03766  -0.00000  -0.00000  -0.09124  -0.17280
  34        3PX         0.00000  -0.05936   0.00000  -0.00000  -0.00000
  35        3PY         0.00000   0.00000   0.19822  -0.00000  -0.00000
  36        3PZ         0.09124  -0.00000  -0.00000  -0.21825  -0.00123
  37        4S         -0.17280   0.00000   0.00000   0.00123  -0.22706
  38        4PX        -0.00000  -0.11862   0.00000  -0.00000  -0.00000
  39        4PY        -0.00000   0.00000   0.14523  -0.00000  -0.00000
  40        4PZ        -0.00891  -0.00000  -0.00000  -0.12781  -0.04944
  41        5S          0.14168   0.00000   0.00000   0.05710   0.15333
  42        5PX         0.00000  -0.07419   0.00000   0.00000   0.00000
  43        5PY         0.00000   0.00000   0.00826   0.00000   0.00000
  44        5PZ         0.04260   0.00000   0.00000   0.01125   0.04659
  45        6D 0        0.00960  -0.00000  -0.00000  -0.00927   0.00379
  46        6D+1        0.00000   0.00770   0.00000  -0.00000   0.00000
  47        6D-1        0.00000   0.00000   0.00615  -0.00000   0.00000
  48        6D+2        0.00006   0.00000  -0.00000   0.00013   0.00035
  49        6D-2        0.00000   0.00000   0.00000   0.00000   0.00000
  50        7D 0        0.01318  -0.00000  -0.00000  -0.01788   0.00269
  51        7D+1        0.00000   0.02662   0.00000  -0.00000   0.00000
  52        7D-1        0.00000   0.00000   0.02289  -0.00000   0.00000
  53        7D+2       -0.00029   0.00000  -0.00000   0.00082   0.00123
  54        7D-2        0.00000   0.00000   0.00000   0.00000   0.00000
                          11        12        13        14        15
  11        4PX         0.36558
  12        4PY         0.00000   0.10640
  13        4PZ        -0.00000  -0.00000   0.07801
  14        5S          0.00000   0.00000   0.01050   0.05088
  15        5PX         0.09062   0.00000  -0.00000  -0.00000   0.02721
  16        5PY         0.00000   0.00605  -0.00000  -0.00000   0.00000
  17        5PZ        -0.00000  -0.00000   0.00270  -0.01747  -0.00000
  18        6D 0       -0.00000   0.00000  -0.00533   0.00015  -0.00000
  19        6D+1       -0.00276   0.00000  -0.00000  -0.00000   0.00023
  20        6D-1        0.00000  -0.00450  -0.00000   0.00000   0.00000
  21        6D+2       -0.00000   0.00000  -0.00016   0.00029   0.00000
  22        6D-2       -0.00000  -0.00000   0.00000   0.00000   0.00000
  23        7D 0        0.00000   0.00000  -0.00972  -0.00102  -0.00000
  24        7D+1       -0.00701   0.00000  -0.00000  -0.00000   0.00133
  25        7D-1        0.00000  -0.01677  -0.00000  -0.00000   0.00000
  26        7D+2       -0.00000   0.00000  -0.00056   0.00126   0.00000
  27        7D-2       -0.00000  -0.00000   0.00000   0.00000   0.00000
  28 2   O  1S         -0.00000  -0.00000  -0.00284  -0.04182   0.00000
  29        2S         -0.00000  -0.00000  -0.00407  -0.05774   0.00000
  30        2PX        -0.08351   0.00000  -0.00000  -0.00000  -0.05142
  31        2PY         0.00000   0.09701  -0.00000  -0.00000   0.00000
  32        2PZ        -0.00000  -0.00000  -0.08694  -0.04175   0.00000
  33        3S          0.00000   0.00000   0.00891   0.14168  -0.00000
  34        3PX        -0.11862   0.00000  -0.00000  -0.00000  -0.07419
  35        3PY         0.00000   0.14523  -0.00000  -0.00000   0.00000
  36        3PZ        -0.00000  -0.00000  -0.12781  -0.05710   0.00000
  37        4S          0.00000   0.00000   0.04944   0.15333  -0.00000
  38        4PX        -0.16139   0.00000   0.00000  -0.00000  -0.07740
  39        4PY         0.00000   0.10640  -0.00000  -0.00000   0.00000
  40        4PZ         0.00000  -0.00000  -0.07612  -0.02361   0.00000
  41        5S          0.00000   0.00000   0.02361  -0.04332   0.00000
  42        5PX        -0.07740   0.00000   0.00000  -0.00000  -0.02636
  43        5PY         0.00000   0.00605  -0.00000  -0.00000   0.00000
  44        5PZ         0.00000  -0.00000   0.00219  -0.01754   0.00000
  45        6D 0       -0.00000  -0.00000  -0.00496  -0.00247  -0.00000
  46        6D+1        0.00596   0.00000  -0.00000  -0.00000   0.00079
  47        6D-1        0.00000   0.00450  -0.00000  -0.00000   0.00000
  48        6D+2        0.00000  -0.00000  -0.00007  -0.00034   0.00000
  49        6D-2        0.00000   0.00000   0.00000   0.00000   0.00000
  50        7D 0       -0.00000  -0.00000  -0.00940  -0.00329  -0.00000
  51        7D+1        0.02103   0.00000  -0.00000  -0.00000   0.00314
  52        7D-1        0.00000   0.01677  -0.00000  -0.00000   0.00000
  53        7D+2        0.00000  -0.00000  -0.00019  -0.00140   0.00000
  54        7D-2        0.00000   0.00000   0.00000   0.00000   0.00000
                          16        17        18        19        20
  16        5PY         0.00034
  17        5PZ         0.00000   0.00670
  18        6D 0        0.00000  -0.00033   0.00055
  19        6D+1        0.00000  -0.00000   0.00000   0.00020
  20        6D-1       -0.00026  -0.00000   0.00000   0.00000   0.00019
  21        6D+2        0.00000  -0.00014  -0.00000   0.00000  -0.00000
  22        6D-2       -0.00000   0.00000   0.00000   0.00000   0.00000
  23        7D 0        0.00000  -0.00014   0.00096   0.00000   0.00000
  24        7D+1        0.00000  -0.00000   0.00000   0.00064   0.00000
  25        7D-1       -0.00095   0.00000   0.00000   0.00000   0.00071
  26        7D+2        0.00000  -0.00059  -0.00003   0.00000  -0.00000
  27        7D-2       -0.00000   0.00000   0.00000   0.00000   0.00000
  28 2   O  1S          0.00000   0.01236  -0.00192  -0.00000  -0.00000
  29        2S          0.00000   0.01713  -0.00314  -0.00000  -0.00000
  30        2PX         0.00000   0.00000   0.00000  -0.00527   0.00000
  31        2PY         0.00552   0.00000   0.00000   0.00000  -0.00411
  32        2PZ         0.00000   0.00865   0.00621   0.00000   0.00000
  33        3S         -0.00000  -0.04260   0.00960   0.00000   0.00000
  34        3PX         0.00000   0.00000   0.00000  -0.00770   0.00000
  35        3PY         0.00826   0.00000   0.00000   0.00000  -0.00615
  36        3PZ         0.00000   0.01125   0.00927   0.00000   0.00000
  37        4S         -0.00000  -0.04659   0.00379   0.00000   0.00000
  38        4PX         0.00000   0.00000   0.00000  -0.00596   0.00000
  39        4PY         0.00605  -0.00000   0.00000   0.00000  -0.00450
  40        4PZ        -0.00000   0.00219   0.00496   0.00000   0.00000
  41        5S          0.00000   0.01754  -0.00247  -0.00000  -0.00000
  42        5PX         0.00000   0.00000   0.00000  -0.00079   0.00000
  43        5PY         0.00034   0.00000  -0.00000   0.00000  -0.00026
  44        5PZ         0.00000   0.00632  -0.00065  -0.00000  -0.00000
  45        6D 0        0.00000   0.00065   0.00047   0.00000   0.00000
  46        6D+1        0.00000   0.00000   0.00000  -0.00018   0.00000
  47        6D-1        0.00026   0.00000   0.00000   0.00000  -0.00019
  48        6D+2       -0.00000   0.00010  -0.00002  -0.00000   0.00000
  49        6D-2        0.00000   0.00000   0.00000  -0.00000  -0.00000
  50        7D 0       -0.00000   0.00070   0.00090   0.00000   0.00000
  51        7D+1        0.00000  -0.00000   0.00000  -0.00056   0.00000
  52        7D-1        0.00095   0.00000   0.00000   0.00000  -0.00071
  53        7D+2       -0.00000   0.00040  -0.00010  -0.00000   0.00000
  54        7D-2        0.00000   0.00000   0.00000  -0.00000  -0.00000
                          21        22        23        24        25
  21        6D+2        0.00000
  22        6D-2        0.00000   0.00000
  23        7D 0       -0.00001   0.00000   0.00172
  24        7D+1        0.00000   0.00000  -0.00000   0.00211
  25        7D-1       -0.00000   0.00000  -0.00000   0.00000   0.00264
  26        7D+2        0.00002   0.00000  -0.00008   0.00000  -0.00000
  27        7D-2        0.00000   0.00000   0.00000   0.00000   0.00000
  28 2   O  1S         -0.00000   0.00000  -0.00373  -0.00000  -0.00000
  29        2S         -0.00001   0.00000  -0.00526  -0.00000  -0.00000
  30        2PX        -0.00000  -0.00000   0.00000  -0.01822   0.00000
  31        2PY         0.00000  -0.00000   0.00000   0.00000  -0.01529
  32        2PZ        -0.00010   0.00000   0.01205   0.00000   0.00000
  33        3S          0.00006   0.00000   0.01318   0.00000   0.00000
  34        3PX        -0.00000  -0.00000   0.00000  -0.02662   0.00000
  35        3PY         0.00000  -0.00000   0.00000   0.00000  -0.02289
[...]
  27        7D-2        0.00000
  28 2   O  1S          1.08425
  29        2S          0.90901
  30        2PX         0.46276
  31        2PY         0.19852
  32        2PZ         0.26345
  33        3S          1.08363
  34        3PX         0.88787
  35        3PY         0.43477
  36        3PZ         0.57963
  37        4S          0.84480
  38        4PX         0.58994
  39        4PY         0.33507
  40        4PZ         0.20544
  41        5S         -0.02751
  42        5PX         0.04043
  43        5PY         0.01413
  44        5PZ         0.03950
  45        6D 0        0.00263
  46        6D+1        0.00099
  47        6D-1        0.00092
  48        6D+2        0.00001
  49        6D-2        0.00000
  50        7D 0        0.01507
  51        7D+1        0.01800
  52        7D-1        0.01659
  53        7D+2        0.00010
  54        7D-2        0.00000
          Condensed to atoms (all electrons):
               1          2
     1  O    7.781513   0.218487
     2  O    0.218487   7.781513
 Mulliken charges:
               1
     1  O    0.000000
     2  O    0.000000
 Sum of Mulliken charges =   0.00000
 Mulliken charges with hydrogens summed into heavy atoms:
               1
     1  O    0.000000
     2  O    0.000000
 APT charges:
               1
     1  O    0.000000
     2  O    0.000000
 Sum of APT charges =   0.00000
 APT charges with hydrogens summed into heavy atoms:
               1
     1  O    0.000000
     2  O    0.000000
 Electronic spatial extent (au):  <R**2>=             43.9877
 Charge=              0.0000 electrons
 Dipole moment (field-independent basis, Debye):
    X=             -0.0000    Y=             -0.0000    Z=             -0.0000  Tot=              0.0000
 Quadrupole moment (field-independent basis, Debye-Ang):
   XX=            -11.1754   YY=             -9.2506   ZZ=            -10.6991
   XY=              0.0000   XZ=              0.0000   YZ=             -0.0000
 Traceless Quadrupole moment (field-independent basis, Debye-Ang):
   XX=             -0.8004   YY=              1.1244   ZZ=             -0.3240
   XY=              0.0000   XZ=              0.0000   YZ=             -0.0000
 Octapole moment (field-independent basis, Debye-Ang**2):
  XXX=             -0.0000  YYY=             -0.0000  ZZZ=              0.0000  XYY=             -0.0000
  XXY=             -0.0000  XXZ=              0.0000  XZZ=             -0.0000  YZZ=              0.0000
  YYZ=              0.0000  XYZ=             -0.0000
 Hexadecapole moment (field-independent basis, Debye-Ang**3):
 XXXX=             -8.9125 YYYY=             -6.4806 ZZZZ=            -29.6727 XXXY=              0.0000
 XXXZ=              0.0000 YYYX=              0.0000 YYYZ=             -0.0000 ZZZX=              0.0000
 ZZZY=             -0.0000 XXYY=             -2.5655 XXZZ=             -7.4788 YYZZ=             -5.7503
 XXYZ=             -0.0000 YYXZ=              0.0000 ZZXY=              0.0000
 N-N= 2.803424986745D+01 E-N=-4.115950045672D+02  KE= 1.499190403724D+02
 Symmetry AG   KE= 6.963762054004D+01
 Symmetry B1G  KE= 3.063067898118D-34
 Symmetry B2G  KE= 5.980557991603D+00
 Symmetry B3G  KE= 7.765512494182D-32
 Symmetry AU   KE= 6.848754822149D-34
 Symmetry B1U  KE= 6.509503541560D+01
 Symmetry B2U  KE= 4.544495517368D+00
 Symmetry B3U  KE= 4.661330907841D+00
 There are a total of       45020 grid points.
 ElSum from          density=       15.9999999627
 ElSum from atomic densities=       15.9999999302

 Hirshfeld populations at iteration   1 (CX, CA, CB, DipXYZ):
               1          2          3          4          5          6
     1  O    0.000002   4.000000   4.000000  -0.000000  -0.000000  -0.107736
     2  O    0.000002   4.000000   4.000000  -0.000000  -0.000000   0.107736
       Tot   0.000003   8.000000   8.000000  -0.000000  -0.000000   0.000000

 Dip from Atomic Chgs              0.000000   0.000000   0.000000
         Total Dipole             -0.000000  -0.000000   0.000000

 Hirshfeld charges, spin densities, dipoles, and CM5 charges using IRadAn=      5:
              Q-H        S-H        Dx         Dy         Dz        Q-CM5   
     1  O    0.000000   0.000000  -0.000000  -0.000000  -0.107736   0.000000
     2  O    0.000000   0.000000  -0.000000  -0.000000   0.107736   0.000000
       Tot   0.000000   0.000000  -0.000000  -0.000000   0.000000   0.000000
 Hirshfeld charges with hydrogens summed into heavy atoms:
              Q-H       Q-CM5   
     1  O    0.000000   0.000000
     2  O    0.000000   0.000000
 
 EQQ= 0.000000000000E+00 EQD= 0.000000000000E+00 EDD=-0.975546875419E-03
 EQQ+QD+DD=-0.975546875419E-03
 
 Orbital energies and kinetic energies (alpha):
                                 1                 2
   1         (SGG)--O        -19.291009         29.135620
   2         (SGU)--O        -19.290752         29.134952
   3         (SGG)--O         -1.298112          2.956920
   4         (SGU)--O         -0.812015          3.412566
   5         (SGG)--O         -0.550690          2.726270
   6         (PIU)--O         -0.533963          2.272248
   7         (PIU)--O         -0.526941          2.330665
   8         (PIG)--O         -0.265923          2.990279
   9         (PIG)--V         -0.194720          2.894954
  10         (SGG)--V          0.080828          0.593659
  11         (SGU)--V          0.084567          0.859574
  12         (PIU)--V          0.126267          0.493025
  13         (PIU)--V          0.133058          0.486958
  14         (SGG)--V          0.190044          0.398083
  15         (PIG)--V          0.206102          0.542228
  16         (PIG)--V          0.206439          0.572734
  17         (SGU)--V          0.252382          3.809467
  18         (SGU)--V          0.336175          0.620783
  19         (SGU)--V          0.896526          2.506598
  20         (PIU)--V          0.925494          2.654918
  21         V                 0.933865          2.066335
  22         (PIU)--V          0.943209          2.639266
  23         (PIG)--V          1.007466          2.575043
  24         (PIG)--V          1.019663          2.542988
  25         V                 1.145760          3.869070
  26         V                 1.215605          2.099821
  27         V                 1.220014          2.157567
  28         (PIU)--V          1.274774          2.454102
  29         (PIU)--V          1.303158          2.450962
  30         V                 1.481416          4.332747
  31         V                 1.618469          2.529126
  32         V                 1.621122          2.538327
  33         (SGG)--V          2.201161          4.190901
  34         (PIG)--V          2.211541          3.184868
  35         (PIG)--V          2.238356          3.185117
  36         (SGU)--V          2.480493          4.152991
  37         (PIU)--V          4.700654         11.636466
  38         (SGG)--V          4.714027         11.932146
  39         (PIU)--V          4.724851         11.603545
  40         (PIG)--V          4.948778         11.847022
  41         (PIG)--V          4.975172         11.813931
  42         (SGU)--V          6.177203         12.773696
  43         V                 6.526032         10.081060
  44         V                 6.529780         10.081744
  45         V                 6.652078         10.181442
  46         V                 6.655833         10.182953
  47         (PIU)--V          6.715743         10.268641
  48         (PIU)--V          6.742905         10.268003
  49         (PIG)--V          6.760962         10.321636
  50         (PIG)--V          6.785797         10.321715
  51         V                 6.918947         10.464623
  52         V                 7.075040         10.858037
  53         (SGG)--V         49.663711        123.804782
  54         (SGU)--V         49.713272        123.657429
 Total kinetic energy from orbitals= 1.499190403724D+02
  Exact polarizability:   6.588   0.000   5.874  -0.000  -0.000  13.478
 Approx polarizability:   7.260  -0.000   7.969  -0.000  -0.000  25.530
 No NMR shielding tensors so no spin-rotation constants.
 Leave Link  601 at Fri Sep  6 09:59:47 2024, MaxMem=   104857600 cpu:               0.1 elap:               0.1
 (Enter /Users/asuyarger/Applications/G16/g16/l701.exe)
 ... and contract with generalized density number  0.
 Compute integral second derivatives.
 Leave Link  701 at Fri Sep  6 09:59:47 2024, MaxMem=   104857600 cpu:               0.0 elap:               0.1
 (Enter /Users/asuyarger/Applications/G16/g16/l702.exe)
 L702 exits ... SP integral derivatives will be done elsewhere.
 Leave Link  702 at Fri Sep  6 09:59:47 2024, MaxMem=   104857600 cpu:               0.0 elap:               0.0
 (Enter /Users/asuyarger/Applications/G16/g16/l703.exe)
 Integral derivatives from FoFJK, PRISM(SPDF).
 Compute integral second derivatives, UseDBF=F ICtDFT=           0.
 Calling FoFJK, ICntrl=    100127 FMM=F ISym2X=1 I1Cent= 0 IOpClX= 0 NMat=1 NMatS=1 NMatT=0.
 FoFJK:  IHMeth= 1 ICntrl=  100127 DoSepK=F KAlg= 0 I1Cent=           0 FoldK=F
 IRaf=         0 NMat=       1 IRICut=       1 DoRegI=T DoRafI=F ISym2E= 1 IDoP0=0 IntGTp=1.
 FoFCou: FMM=F IPFlag=           0 FMFlag=      100000 FMFlg1=         800
         NFxFlg=           0 DoJE=F BraDBF=F KetDBF=F FulRan=T
         wScrn=  0.000000 ICntrl=    100127 IOpCl=  0 I1Cent=           0 NGrid=           0
         NMat0=    1 NMatS0=      1 NMatT0=    0 NMatD0=    1 NMtDS0=    0 NMtDT0=    0
 Petite list used in FoFCou.
 Leave Link  703 at Fri Sep  6 09:59:47 2024, MaxMem=   104857600 cpu:               0.4 elap:               0.4
 (Enter /Users/asuyarger/Applications/G16/g16/l716.exe)
 Dipole        =-1.97215226D-31-2.55787571D-33-8.88178420D-16
 Polarizability= 6.58790958D+00 1.29146105D-17 5.87409195D+00
                -1.52239432D-15-7.14226359D-33 1.34779513D+01
 HyperPolar    = 4.40624648D-11 5.33347359D-10 9.51879912D-12
                 2.04472321D-11-3.58282650D-10-6.59336850D-12
                 2.54887107D-12 2.62921630D-11 3.55584497D-11
                -2.21886466D-11
 Full mass-weighted force constant matrix:
 Low frequencies ---   -0.0012   -0.0009   -0.0004   11.6387   12.5122 1617.5013
 Diagonal vibrational polarizability:
        0.0000000       0.0000000       0.0000000
 Diagonal vibrational hyperpolarizability:
       -0.0000000       0.0000000      -0.0000000
 Harmonic frequencies (cm**-1), IR intensities (KM/Mole), Raman scattering
 activities (A**4/AMU), depolarization ratios for plane and unpolarized
 incident light, reduced masses (AMU), force constants (mDyne/A),
 and normal coordinates:
                      1
                     SGG
 Frequencies --   1617.5013
 Red. masses --     15.9949
 Frc consts  --     24.6559
 IR Inten    --      0.0000
 Raman Activ --     11.1077
 Depolar (P) --      0.2744
 Depolar (U) --      0.4306
  Atom  AN      X      Y      Z
     1   8    -0.00   0.00   0.71
     2   8     0.00   0.00  -0.71

 -------------------
 - Thermochemistry -
 -------------------
 Temperature   298.150 Kelvin.  Pressure   1.00000 Atm.
 Atom     1 has atomic number  8 and mass  15.99491
 Atom     2 has atomic number  8 and mass  15.99491
 Molecular mass:    31.98983 amu.
 Principal axes and moments of inertia in atomic units:
                           1         2         3
     Eigenvalues --     0.00000  41.68060  41.68060
           X           -0.00000   1.00000  -0.00000
           Y            0.00000   0.00000   1.00000
           Z            1.00000   0.00000  -0.00000
 This molecule is a prolate symmetric top.
 Rotational symmetry number  2.
 Rotational temperature (Kelvin)      2.07804
 Rotational constant (GHZ):          43.299306
 Zero-point vibrational energy       9674.8 (Joules/Mol)
                                    2.31233 (Kcal/Mol)
 Vibrational temperatures:   2327.22
          (Kelvin)
 
 Zero-point correction=                           0.003685 (Hartree/Particle)
 Thermal correction to Energy=                    0.006048
 Thermal correction to Enthalpy=                  0.006993
 Thermal correction to Gibbs Free Energy=        -0.015247
 Sum of electronic and zero-point Energies=           -150.309474
 Sum of electronic and thermal Energies=              -150.307111
 Sum of electronic and thermal Enthalpies=            -150.306166
 Sum of electronic and thermal Free Energies=         -150.328406
 
                     E (Thermal)             CV                S
                      KCal/Mol        Cal/Mol-Kelvin    Cal/Mol-Kelvin
 Total                    3.795              5.017             46.806
 Electronic               0.000              0.000              0.000
 Translational            0.889              2.981             36.321
 Rotational               0.592              1.987             10.479
 Vibrational              2.314              0.049              0.007
                       Q            Log10(Q)             Ln(Q)
 Total Bot       0.103026D+08          7.012947         16.147907
 Total V=0       0.510387D+09          8.707900         20.050680
 Vib (Bot)       0.201941D-01         -1.694776         -3.902366
 Vib (V=0)       0.100041D+01          0.000177          0.000408
 Electronic      0.100000D+01          0.000000          0.000000
 Translational   0.711167D+07          6.851972         15.777248
 Rotational      0.717383D+02          1.855751          4.273025
 ***** Axes restored to original set *****
 -------------------------------------------------------------------
 Center     Atomic                   Forces (Hartrees/Bohr)
 Number     Number              X              Y              Z
 -------------------------------------------------------------------
      1        8          -0.000090165    0.000000000   -0.000000000
      2        8           0.000090165   -0.000000000    0.000000000
 -------------------------------------------------------------------
 Cartesian Forces:  Max     0.000090165 RMS     0.000052057
 Force constants in Cartesian coordinates: 
                1             2             3             4             5 
      1  0.791831D+00
      2  0.000000D+00  0.409968D-04
      3  0.000000D+00  0.000000D+00  0.473817D-04
      4 -0.791831D+00  0.000000D+00  0.000000D+00  0.791831D+00
      5  0.000000D+00 -0.409968D-04  0.000000D+00  0.000000D+00  0.409968D-04
      6  0.000000D+00  0.000000D+00 -0.473817D-04  0.000000D+00  0.000000D+00
                6 
      6  0.473817D-04
 FormGI is forming the generalized inverse of G from B-inverse, IUseBI=4.
 Force constants in internal coordinates: 
                1 
      1  0.791831D+00
 Leave Link  716 at Fri Sep  6 09:59:47 2024, MaxMem=   104857600 cpu:               0.0 elap:               0.0
 (Enter /Users/asuyarger/Applications/G16/g16/l103.exe)

 GradGradGradGradGradGradGradGradGradGradGradGradGradGradGradGradGradGrad
 Berny optimization.
 Red2BG is reusing G-inverse.
 Internal  Forces:  Max     0.000090165 RMS     0.000090165
 Search for a local minimum.
 Step number   1 out of a maximum of    2
 All quantities printed in internal units (Hartrees-Bohrs-Radians)
 Second derivative matrix not updated -- analytic derivatives used.
 The second derivative matrix:
                          R1
           R1           0.79183
 ITU=  0
     Eigenvalues ---    0.79183
 Angle between quadratic step and forces=   0.00 degrees.
 Linear search not attempted -- first point.
 Iteration  1 RMS(Cart)=  0.00008052 RMS(Int)=  0.00000000
 Iteration  2 RMS(Cart)=  0.00000000 RMS(Int)=  0.00000000
 ITry= 1 IFail=0 DXMaxC= 5.69D-05 DCOld= 1.00D+10 DXMaxT= 3.00D-01 DXLimC= 3.00D+00 Rises=F
 ClnCor:  largest displacement from symmetrization is 0.00D+00 for atom     0.
 Variable       Old X    -DE/DX   Delta X   Delta X   Delta X     New X
                                 (Linear)    (Quad)   (Total)
    R1        2.28292  -0.00009   0.00000  -0.00011  -0.00011   2.28281
         Item               Value     Threshold  Converged?
 Maximum Force            0.000090     0.000450     YES
 RMS     Force            0.000090     0.000300     YES
 Maximum Displacement     0.000057     0.001800     YES
 RMS     Displacement     0.000081     0.001200     YES
 Predicted change in Energy=-5.133491D-09
 Optimization completed.
    -- Stationary point found.
                           ----------------------------
                           !   Optimized Parameters   !
                           ! (Angstroms and Degrees)  !
 --------------------------                            --------------------------
 ! Name  Definition              Value          Derivative Info.                !
 --------------------------------------------------------------------------------
 ! R1    R(1,2)                  1.2081         -DE/DX =   -0.0001              !
 --------------------------------------------------------------------------------
 GradGradGradGradGradGradGradGradGradGradGradGradGradGradGradGradGradGrad

 Leave Link  103 at Fri Sep  6 09:59:47 2024, MaxMem=   104857600 cpu:               0.0 elap:               0.0
 (Enter /Users/asuyarger/Applications/G16/g16/l9999.exe)
 Dipole is zero, so no output in dipole orientation.

 ----------------------------------------------------------------------

 Electric dipole moment (input orientation):
 (Debye = 10**-18 statcoulomb cm , SI units = C m)
                  (au)            (Debye)         (10**-30 SI)
   Tot        0.000000D+00      0.000000D+00      0.000000D+00
   x          0.000000D+00      0.000000D+00      0.000000D+00
   y          0.000000D+00      0.000000D+00      0.000000D+00
   z          0.000000D+00      0.000000D+00      0.000000D+00

 Dipole polarizability, Alpha (input orientation).
 (esu units = cm**3 , SI units = C**2 m**2 J**-1)
 Alpha(0;0):
               (au)            (10**-24 esu)      (10**-40 SI)
   iso        0.864665D+01      0.128130D+01      0.142564D+01
   aniso      0.727327D+01      0.107779D+01      0.119920D+01
   xx         0.134780D+02      0.199723D+01      0.222221D+01
   yx         0.000000D+00      0.000000D+00      0.000000D+00
   yy         0.587409D+01      0.870451D+00      0.968507D+00
   zx         0.000000D+00      0.000000D+00      0.000000D+00
   zy         0.000000D+00      0.000000D+00      0.000000D+00
   zz         0.658791D+01      0.976227D+00      0.108620D+01

 ----------------------------------------------------------------------
 1\1\GINC-JEFFSMACSTUDIO\Freq\RB3LYP\6-311++G(2d,3p)\O2\ROOT\06-Sep-202
 4\0\\#P Geom=AllCheck Guess=TCheck SCRF=Check GenChk RB3LYP/6-311++G(2
 d,3p) Freq\\O2 DFT B3LPY 6-311++g(2d,3p) Opt Freq - Full\\0,1\O,1.5748
 262138,-0.69786534,-0.02031144\O,0.3667560262,-0.69786534,-0.02031144\
 \Version=EM64M-G16RevA.03\HF=-150.313159\RMSD=1.214e-09\RMSF=5.206e-05
 \ZeroPoint=0.0036849\Thermal=0.0060484\Dipole=0.,0.,0.\DipoleDeriv=0.,
 0.,0.,0.,0.,0.,0.,0.,0.,0.,0.,0.,0.,0.,0.,0.,0.,0.\Polar=13.4779513,0.
 ,5.874092,0.,0.,6.5879096\PolarDeriv=9.4715604,0.,1.4145168,0.,0.,-0.2
 677737,0.,3.3307078,0.,0.,0.,0.,0.,0.,0.,3.0191239,0.,0.,-9.4715604,0.
 ,-1.4145168,0.,0.,0.2677737,0.,-3.3307078,0.,0.,0.,0.,0.,0.,0.,-3.0191
 239,0.,0.\HyperPolar=0.,0.,0.,0.,0.,0.,0.,0.,0.,0.\Quadrupole=-0.24091
 79,0.8359908,-0.595073,0.,0.,0.\PG=D*H [C*(O1.O1)]\NImag=0\\0.79183129
 ,0.,0.00004100,0.,0.,0.00004738,-0.79183129,0.,0.,0.79183129,0.,-0.000
 04100,0.,0.,0.00004100,0.,0.,-0.00004738,0.,0.,0.00004738\\0.00009016,
 0.,0.,-0.00009016,0.,0.\\\@


 TO DETECT ERRORS, THE PROGRAMMER MUST HAVE A CONNIVING MIND,
 ONE THAT DELIGHTS IN UNCOVERING FLAWS WHERE BEAUTY AND
 PERFECTION WERE ONCE THOUGHT TO LIE.

             -- THE PSYCHOLOGY OF COMPUTER PROGRAMMING
                GERALD M. WEINBERG
 Job cpu time:       0 days  0 hours  0 minutes  3.3 seconds.
 Elapsed time:       0 days  0 hours  0 minutes  3.2 seconds.
 File lengths (MBytes):  RWF=      6 Int=      0 D2E=      0 Chk=      1 Scr=      1
 Normal termination of Gaussian 16 at Fri Sep  6 09:59:47 2024.
