 Entering Gaussian System, Link 0=g16
 Input=/Users/asuyarger/Downloads/O2_DFT_B3LPY_apVTZ_Opt_Freq_Full.gjf
 Output=/Users/asuyarger/Downloads/O2_DFT_B3LPY_apVTZ_Opt_Freq_Full.log
 Initial command:
 /Users/asuyarger/Applications/G16/g16/l1.exe "/Users/asuyarger/Applications/G16/scratch/Gau-88599.inp" -scrdir="/Users/asuyarger/Applications/G16/scratch/"
 Entering Link 1 = /Users/asuyarger/Applications/G16/g16/l1.exe PID=     88600.
  
 Copyright (c) 1988,1990,1992,1993,1995,1998,2003,2009,2016,
            Gaussian, Inc.  All Rights Reserved.
  
 This is part of the Gaussian(R) 16 program.  It is based on
 the Gaussian(R) 09 system (copyright 2009, Gaussian, Inc.),
 the Gaussian(R) 03 system (copyright 2003, Gaussian, Inc.),
 the Gaussian(R) 98 system (copyright 1998, Gaussian, Inc.),
 the Gaussian(R) 94 system (copyright 1995, Gaussian, Inc.),
 the Gaussian 92(TM) system (copyright 1992, Gaussian, Inc.),
 the Gaussian 90(TM) system (copyright 1990, Gaussian, Inc.),
 the Gaussian 88(TM) system (copyright 1988, Gaussian, Inc.),
 the Gaussian 86(TM) system (copyright 1986, Carnegie Mellon
 University), and the Gaussian 82(TM) system (copyright 1983,
 Carnegie Mellon University). Gaussian is a federally registered
 trademark of Gaussian, Inc.
  
 This software contains proprietary and confidential information,
 including trade secrets, belonging to Gaussian, Inc.
  
 This software is provided under written license and may be
 used, copied, transmitted, or stored only in accord with that
 written license.
  
 The following legend is applicable only to US Government
 contracts under FAR:
  
                    RESTRICTED RIGHTS LEGEND
  
 Use, reproduction and disclosure by the US Government is
 subject to restrictions as set forth in subparagraphs (a)
 and (c) of the Commercial Computer Software - Restricted
 Rights clause in FAR 52.227-19.
  
 Gaussian, Inc.
 340 Quinnipiac St., Bldg. 40, Wallingford CT 06492
  
  
 ---------------------------------------------------------------
 Warning -- This program may not be used in any manner that
 competes with the business of Gaussian, Inc. or will provide
 assistance to any competitor of Gaussian, Inc.  The licensee
 of this program is prohibited from giving any competitor of
 Gaussian, Inc. access to this program.  By using this program,
 the user acknowledges that Gaussian, Inc. is engaged in the
 business of creating and licensing software in the field of
 computational chemistry and represents and warrants to the
 licensee that it is not a competitor of Gaussian, Inc. and that
 it will not use this program in any manner prohibited above.
 ---------------------------------------------------------------
  

 Cite this work as:
 Gaussian 16, Revision A.03,
 M. J. Frisch, G. W. Trucks, H. B. Schlegel, G. E. Scuseria, 
 M. A. Robb, J. R. Cheeseman, G. Scalmani, V. Barone, 
 G. A. Petersson, H. Nakatsuji, X. Li, M. Caricato, A. V. Marenich, 
 J. Bloino, B. G. Janesko, R. Gomperts, B. Mennucci, H. P. Hratchian, 
 J. V. Ortiz, A. F. Izmaylov, J. L. Sonnenberg, D. Williams-Young, 
 F. Ding, F. Lipparini, F. Egidi, J. Goings, B. Peng, A. Petrone, 
 T. Henderson, D. Ranasinghe, V. G. Zakrzewski, J. Gao, N. Rega, 
 G. Zheng, W. Liang, M. Hada, M. Ehara, K. Toyota, R. Fukuda, 
 J. Hasegawa, M. Ishida, T. Nakajima, Y. Honda, O. Kitao, H. Nakai, 
 T. Vreven, K. Throssell, J. A. Montgomery, Jr., J. E. Peralta, 
 F. Ogliaro, M. J. Bearpark, J. J. Heyd, E. N. Brothers, K. N. Kudin, 
 V. N. Staroverov, T. A. Keith, R. Kobayashi, J. Normand, 
 K. Raghavachari, A. P. Rendell, J. C. Burant, S. S. Iyengar, 
 J. Tomasi, M. Cossi, J. M. Millam, M. Klene, C. Adamo, R. Cammi, 
 J. W. Ochterski, R. L. Martin, K. Morokuma, O. Farkas, 
 J. B. Foresman, and D. J. Fox, Gaussian, Inc., Wallingford CT, 2016.
 
 ******************************************
 Gaussian 16:  EM64M-G16RevA.03 25-Dec-2016
                 6-Sep-2024 
 ******************************************
 %chk=O2_DFT_B3LPY_apVTZ_Opt_Freq_Full.chk
 ----------------------------------------------------------------------
 #p opt freq=raman b3lyp/aug-cc-pvtz guess=save pop=(hirshfeld,full) ge
 om=connectivity polar
 ----------------------------------------------------------------------
 1/18=20,19=15,26=3,38=1,57=2/1,3;
 2/9=110,12=2,17=6,18=5,40=1/2;
 3/5=16,6=1,7=10,11=2,25=1,30=1,71=1,74=-5/1,2,3;
 4//1;
 5/5=2,38=5,98=1/2;
 6/7=3,28=1,79=1/1;
 7//1,2,3,16;
 1/18=20,19=15,26=3/3(2);
 2/9=110/2;
 99//99;
 2/9=110/2;
 3/5=16,6=1,7=10,11=2,25=1,30=1,71=1,74=-5/1,2,3;
 4/5=5,16=3,69=1/1;
 5/5=2,38=5,98=1/2;
 7//1,2,3,16;
 1/18=20,19=15,26=3/3(-5);
 2/9=110/2;
 6/7=3,19=2,28=1,79=1/1;
 99/9=1/99;
 Leave Link    1 at Fri Sep  6 10:02:20 2024, MaxMem=           0 cpu:               0.0 elap:               0.0
 (Enter /Users/asuyarger/Applications/G16/g16/l101.exe)
 ----------------------------------------
 O2 DFT B3LPY aug-cc-pVTZ Opt Freq - Full
 ----------------------------------------
 Symbolic Z-matrix:
 Charge =  0 Multiplicity = 1
 O                     1.55159  -0.69787  -0.02031 
 O                     0.38999  -0.69787  -0.02031 
 
 ITRead=  0  0
 MicOpt= -1 -1
 NAtoms=      2 NQM=        2 NQMF=       0 NMMI=      0 NMMIF=      0
                NMic=       0 NMicF=      0.
                    Isotopes and Nuclear Properties:
 (Nuclear quadrupole moments (NQMom) in fm**2, nuclear magnetic moments (NMagM)
  in nuclear magnetons)

  Atom         1           2
 IAtWgt=          16          16
 AtmWgt=  15.9949146  15.9949146
 NucSpn=           0           0
 AtZEff=  -0.0000000  -0.0000000
 NQMom=    0.0000000   0.0000000
 NMagM=    0.0000000   0.0000000
 AtZNuc=   8.0000000   8.0000000
 Leave Link  101 at Fri Sep  6 10:02:20 2024, MaxMem=   104857600 cpu:               0.1 elap:               0.1
 (Enter /Users/asuyarger/Applications/G16/g16/l103.exe)

 GradGradGradGradGradGradGradGradGradGradGradGradGradGradGradGradGradGrad
 Berny optimization.
 Initialization pass.
                           ----------------------------
                           !    Initial Parameters    !
                           ! (Angstroms and Degrees)  !
 --------------------------                            --------------------------
 ! Name  Definition              Value          Derivative Info.                !
 --------------------------------------------------------------------------------
 ! R1    R(1,2)                  1.1616         estimate D2E/DX2                !
 --------------------------------------------------------------------------------
 Trust Radius=3.00D-01 FncErr=1.00D-07 GrdErr=1.00D-06 EigMax=2.50D+02 EigMin=1.00D-04
 Number of steps in this run=     20 maximum allowed number of steps=    100.
 GradGradGradGradGradGradGradGradGradGradGradGradGradGradGradGradGradGrad

 Leave Link  103 at Fri Sep  6 10:02:20 2024, MaxMem=   104857600 cpu:               0.0 elap:               0.0
 (Enter /Users/asuyarger/Applications/G16/g16/l202.exe)
                          Input orientation:                          
 ---------------------------------------------------------------------
 Center     Atomic      Atomic             Coordinates (Angstroms)
 Number     Number       Type             X           Y           Z
 ---------------------------------------------------------------------
      1          8           0        1.551591   -0.697865   -0.020311
      2          8           0        0.389991   -0.697865   -0.020311
 ---------------------------------------------------------------------
 Stoichiometry    O2
 Framework group  D*H[C*(O.O)]
 Deg. of freedom     1
 Full point group                 D*H     NOp   8
 Largest Abelian subgroup         D2H     NOp   8
 Largest concise Abelian subgroup C2      NOp   2
                         Standard orientation:                         
 ---------------------------------------------------------------------
 Center     Atomic      Atomic             Coordinates (Angstroms)
 Number     Number       Type             X           Y           Z
 ---------------------------------------------------------------------
      1          8           0        0.000000    0.000000    0.580800
      2          8           0        0.000000    0.000000   -0.580800
 ---------------------------------------------------------------------
 Rotational constants (GHZ):           0.0000000          46.8330090          46.8330090
 Leave Link  202 at Fri Sep  6 10:02:20 2024, MaxMem=   104857600 cpu:               0.0 elap:               0.0
 (Enter /Users/asuyarger/Applications/G16/g16/l301.exe)
 Standard basis: Aug-CC-pVTZ (5D, 7F)
 Ernie: Thresh=  0.10000D-02 Tol=  0.10000D-05 Strict=F.
 Ernie:  6 primitive shells out of 60 were deleted.
 There are    24 symmetry adapted cartesian basis functions of AG  symmetry.
 There are     5 symmetry adapted cartesian basis functions of B1G symmetry.
 There are    13 symmetry adapted cartesian basis functions of B2G symmetry.
 There are    13 symmetry adapted cartesian basis functions of B3G symmetry.
 There are     5 symmetry adapted cartesian basis functions of AU  symmetry.
 There are    24 symmetry adapted cartesian basis functions of B1U symmetry.
 There are    13 symmetry adapted cartesian basis functions of B2U symmetry.
 There are    13 symmetry adapted cartesian basis functions of B3U symmetry.
 There are    19 symmetry adapted basis functions of AG  symmetry.
 There are     5 symmetry adapted basis functions of B1G symmetry.
 There are    11 symmetry adapted basis functions of B2G symmetry.
 There are    11 symmetry adapted basis functions of B3G symmetry.
 There are     5 symmetry adapted basis functions of AU  symmetry.
 There are    19 symmetry adapted basis functions of B1U symmetry.
 There are    11 symmetry adapted basis functions of B2U symmetry.
 There are    11 symmetry adapted basis functions of B3U symmetry.
    92 basis functions,   144 primitive gaussians,   110 cartesian basis functions
     8 alpha electrons        8 beta electrons
       nuclear repulsion energy        29.1557691967 Hartrees.
 IExCor=  402 DFT=T Ex+Corr=B3LYP ExCW=0 ScaHFX=  0.200000
 ScaDFX=  0.800000  0.720000  1.000000  0.810000 ScalE2=  1.000000  1.000000
 IRadAn=      5 IRanWt=     -1 IRanGd=            0 ICorTp=0 IEmpDi=  4
 NAtoms=    2 NActive=    2 NUniq=    1 SFac= 4.00D+00 NAtFMM=   60 NAOKFM=F Big=F
 Integral buffers will be    131072 words long.
 Raffenetti 2 integral format.
 Two-electron integral symmetry is turned on.
 Leave Link  301 at Fri Sep  6 10:02:20 2024, MaxMem=   104857600 cpu:               0.0 elap:               0.0
 (Enter /Users/asuyarger/Applications/G16/g16/l302.exe)
 NPDir=0 NMtPBC=     1 NCelOv=     1 NCel=       1 NClECP=     1 NCelD=      1
         NCelK=      1 NCelE2=     1 NClLst=     1 CellRange=     0.0.
 One-electron integrals computed using PRISM.
 One-electron integral symmetry used in STVInt
 NBasis=    92 RedAO= T EigKep=  2.08D-04  NBF=    19     5    11    11     5    19    11    11
 NBsUse=    92 1.00D-06 EigRej= -1.00D+00 NBFU=    19     5    11    11     5    19    11    11
 Precomputing XC quadrature grid using
 IXCGrd= 4 IRadAn=           5 IRanWt=          -1 IRanGd=           0 AccXCQ= 0.00D+00.
 Generated NRdTot=       0 NPtTot=           0 NUsed=           0 NTot=          32
 NSgBfM=   110   110   110   110   110 MxSgAt=     2 MxSgA2=     2.
 Leave Link  302 at Fri Sep  6 10:02:20 2024, MaxMem=   104857600 cpu:               0.1 elap:               0.1
 (Enter /Users/asuyarger/Applications/G16/g16/l303.exe)
 DipDrv:  MaxL=1.
 Leave Link  303 at Fri Sep  6 10:02:21 2024, MaxMem=   104857600 cpu:               0.0 elap:               0.0
 (Enter /Users/asuyarger/Applications/G16/g16/l401.exe)
 ExpMin= 5.97D-02 ExpMax= 1.53D+04 ExpMxC= 5.22D+02 IAcc=3 IRadAn=         5 AccDes= 0.00D+00
 Harris functional with IExCor=  402 and IRadAn=       5 diagonalized for initial guess.
 HarFok:  IExCor=  402 AccDes= 0.00D+00 IRadAn=         5 IDoV= 1 UseB2=F ITyADJ=14
 ICtDFT=  3500011 ScaDFX=  1.000000  1.000000  1.000000  1.000000
 FoFCou: FMM=F IPFlag=           0 FMFlag=      100000 FMFlg1=           0
         NFxFlg=           0 DoJE=T BraDBF=F KetDBF=T FulRan=T
         wScrn=  0.000000 ICntrl=       500 IOpCl=  0 I1Cent=   200000004 NGrid=           0
         NMat0=    1 NMatS0=      1 NMatT0=    0 NMatD0=    1 NMtDS0=    0 NMtDT0=    0
 Petite list used in FoFCou.
 Harris En= -150.326188381753    
 JPrj=0 DoOrth=F DoCkMO=F.
 Initial guess orbital symmetries:
       Occupied  (SGG) (SGU) (SGG) (SGU) (SGG) (PIU) (PIU) (PIG)
       Virtual   (PIG) (SGU) (SGG) (PIU) (PIU) (SGG) (PIG) (PIG)
                 (SGU) (SGU) (DLTG) (DLTG) (SGG) (PIU) (PIU) (PIG)
                 (PIG) (DLTU) (DLTU) (PIU) (PIU) (SGU) (SGG) (SGU)
                 (PIG) (PIG) (SGG) (DLTG) (DLTG) (PHIU) (PHIU)
                 (PIU) (PIU) (DLTU) (DLTU) (SGG) (DLTG) (DLTG)
                 (PHIG) (PHIG) (SGU) (PIG) (PIG) (SGU) (PIU) (PIU)
                 (DLTU) (DLTU) (SGU) (PIG) (PIG) (SGG) (PIU) (PIU)
                 (SGG) (PIG) (PIG) (PIU) (PIU) (SGG) (DLTG) (DLTG)
                 (SGU) (PHIU) (PHIU) (SGU) (PHIG) (PHIG) (DLTG)
                 (DLTG) (DLTU) (DLTU) (DLTU) (DLTU) (PIU) (PIU)
                 (PIG) (PIG) (PIG) (PIG) (SGG) (SGU) (SGG) (SGU)
 Leave Link  401 at Fri Sep  6 10:02:21 2024, MaxMem=   104857600 cpu:               0.1 elap:               0.1
 (Enter /Users/asuyarger/Applications/G16/g16/l502.exe)
 Keep R1 ints in memory in symmetry-blocked form, NReq=11140354.
 FoFCou: FMM=F IPFlag=           0 FMFlag=           0 FMFlg1=           0
         NFxFlg=           0 DoJE=F BraDBF=F KetDBF=F FulRan=T
         wScrn=  0.000000 ICntrl=       600 IOpCl=  0 I1Cent=           0 NGrid=           0
         NMat0=    1 NMatS0=   4278 NMatT0=    0 NMatD0=    1 NMtDS0=    0 NMtDT0=    0
 Petite list used in FoFCou.
 Closed shell SCF:
 Using DIIS extrapolation, IDIIS=  1040.
 NGot=   104857600 LenX=   103645823 LenY=   103633282
 Requested convergence on RMS density matrix=1.00D-08 within 128 cycles.
 Requested convergence on MAX density matrix=1.00D-06.
 Requested convergence on             energy=1.00D-06.
 No special actions if energy rises.
 Integral accuracy reduced to 1.0D-05 until final iterations.

 Cycle   1  Pass 0  IDiag  1:
 E= -150.311522447085    
 DIIS: error= 1.62D-02 at cycle   1 NSaved=   1.
 NSaved= 1 IEnMin= 1 EnMin= -150.311522447085     IErMin= 1 ErrMin= 1.62D-02
 ErrMax= 1.62D-02  0.00D+00 EMaxC= 1.00D-01 BMatC= 1.90D-02 BMatP= 1.90D-02
 IDIUse=3 WtCom= 8.38D-01 WtEn= 1.62D-01
 Coeff-Com:  0.100D+01
 Coeff-En:   0.100D+01
 Coeff:      0.100D+01
 Gap=     0.070 Goal=   None    Shift=    0.000
 GapD=    0.070 DampG=0.500 DampE=0.500 DampFc=0.2500 IDamp=-1.
 Damping current iteration by 2.50D-01
 RMSDP=9.51D-04 MaxDP=1.39D-02              OVMax= 3.03D-02

 Cycle   2  Pass 0  IDiag  1:
 E= -150.314170052798     Delta-E=       -0.002647605714 Rises=F Damp=T
 DIIS: error= 1.05D-02 at cycle   2 NSaved=   2.
 NSaved= 2 IEnMin= 2 EnMin= -150.314170052798     IErMin= 2 ErrMin= 1.05D-02
 ErrMax= 1.05D-02  0.00D+00 EMaxC= 1.00D-01 BMatC= 8.94D-03 BMatP= 1.90D-02
 IDIUse=3 WtCom= 8.95D-01 WtEn= 1.05D-01
 Coeff-Com: -0.207D+01 0.307D+01
 Coeff-En:   0.000D+00 0.100D+01
 Coeff:     -0.185D+01 0.285D+01
 Gap=     0.072 Goal=   None    Shift=    0.000
 RMSDP=4.48D-04 MaxDP=7.80D-03 DE=-2.65D-03 OVMax= 9.88D-03

 Cycle   3  Pass 0  IDiag  1:
 E= -150.320383638541     Delta-E=       -0.006213585742 Rises=F Damp=F
 DIIS: error= 6.99D-04 at cycle   3 NSaved=   3.
 NSaved= 3 IEnMin= 3 EnMin= -150.320383638541     IErMin= 3 ErrMin= 6.99D-04
 ErrMax= 6.99D-04  0.00D+00 EMaxC= 1.00D-01 BMatC= 2.46D-05 BMatP= 8.94D-03
 IDIUse=3 WtCom= 9.93D-01 WtEn= 6.99D-03
 Coeff-Com: -0.252D+00 0.363D+00 0.889D+00
 Coeff-En:   0.000D+00 0.000D+00 0.100D+01
 Coeff:     -0.250D+00 0.360D+00 0.890D+00
 Gap=     0.073 Goal=   None    Shift=    0.000
 RMSDP=4.93D-05 MaxDP=7.11D-04 DE=-6.21D-03 OVMax= 1.95D-03

 Cycle   4  Pass 0  IDiag  1:
 E= -150.320392351098     Delta-E=       -0.000008712557 Rises=F Damp=F
 DIIS: error= 5.51D-04 at cycle   4 NSaved=   4.
 NSaved= 4 IEnMin= 4 EnMin= -150.320392351098     IErMin= 4 ErrMin= 5.51D-04
 ErrMax= 5.51D-04  0.00D+00 EMaxC= 1.00D-01 BMatC= 9.49D-06 BMatP= 2.46D-05
 IDIUse=3 WtCom= 9.94D-01 WtEn= 5.51D-03
 Coeff-Com: -0.510D-01 0.696D-01 0.400D+00 0.581D+00
 Coeff-En:   0.000D+00 0.000D+00 0.262D+00 0.738D+00
 Coeff:     -0.507D-01 0.693D-01 0.399D+00 0.582D+00
 Gap=     0.073 Goal=   None    Shift=    0.000
 RMSDP=2.08D-05 MaxDP=3.59D-04 DE=-8.71D-06 OVMax= 7.72D-04

 Cycle   5  Pass 0  IDiag  1:
 E= -150.320398445199     Delta-E=       -0.000006094101 Rises=F Damp=F
 DIIS: error= 1.99D-05 at cycle   5 NSaved=   5.
 NSaved= 5 IEnMin= 5 EnMin= -150.320398445199     IErMin= 5 ErrMin= 1.99D-05
 ErrMax= 1.99D-05  0.00D+00 EMaxC= 1.00D-01 BMatC= 1.26D-08 BMatP= 9.49D-06
 IDIUse=1 WtCom= 1.00D+00 WtEn= 0.00D+00
 Coeff-Com: -0.539D-03 0.561D-03-0.475D-03 0.334D-01 0.967D+00
 Coeff:     -0.539D-03 0.561D-03-0.475D-03 0.334D-01 0.967D+00
 Gap=     0.073 Goal=   None    Shift=    0.000
 RMSDP=9.07D-07 MaxDP=1.40D-05 DE=-6.09D-06 OVMax= 3.28D-05

 Initial convergence to 1.0D-05 achieved.  Increase integral accuracy.
 Cycle   6  Pass 1  IDiag  1:
 E= -150.320393416149     Delta-E=        0.000005029050 Rises=F Damp=F
 DIIS: error= 4.63D-06 at cycle   1 NSaved=   1.
 NSaved= 1 IEnMin= 1 EnMin= -150.320393416149     IErMin= 1 ErrMin= 4.63D-06
 ErrMax= 4.63D-06  0.00D+00 EMaxC= 1.00D-01 BMatC= 3.25D-10 BMatP= 3.25D-10
 IDIUse=1 WtCom= 1.00D+00 WtEn= 0.00D+00
 Coeff-Com:  0.100D+01
 Coeff:      0.100D+01
 Gap=     0.073 Goal=   None    Shift=    0.000
 RMSDP=9.07D-07 MaxDP=1.40D-05 DE= 5.03D-06 OVMax= 9.76D-06

 Cycle   7  Pass 1  IDiag  1:
 E= -150.320393416474     Delta-E=       -0.000000000325 Rises=F Damp=F
 DIIS: error= 3.52D-07 at cycle   2 NSaved=   2.
 NSaved= 2 IEnMin= 2 EnMin= -150.320393416474     IErMin= 2 ErrMin= 3.52D-07
 ErrMax= 3.52D-07  0.00D+00 EMaxC= 1.00D-01 BMatC= 3.82D-12 BMatP= 3.25D-10
 IDIUse=1 WtCom= 1.00D+00 WtEn= 0.00D+00
 Coeff-Com: -0.221D-01 0.102D+01
 Coeff:     -0.221D-01 0.102D+01
 Gap=     0.073 Goal=   None    Shift=    0.000
 RMSDP=4.68D-08 MaxDP=8.35D-07 DE=-3.25D-10 OVMax= 8.21D-07

 Cycle   8  Pass 1  IDiag  1:
 E= -150.320393416475     Delta-E=       -0.000000000002 Rises=F Damp=F
 DIIS: error= 2.99D-07 at cycle   3 NSaved=   3.
 NSaved= 3 IEnMin= 3 EnMin= -150.320393416475     IErMin= 3 ErrMin= 2.99D-07
 ErrMax= 2.99D-07  0.00D+00 EMaxC= 1.00D-01 BMatC= 2.87D-12 BMatP= 3.82D-12
 IDIUse=1 WtCom= 1.00D+00 WtEn= 0.00D+00
 Coeff-Com: -0.188D-01 0.484D+00 0.535D+00
 Coeff:     -0.188D-01 0.484D+00 0.535D+00
 Gap=     0.073 Goal=   None    Shift=    0.000
 RMSDP=1.22D-08 MaxDP=2.03D-07 DE=-1.53D-12 OVMax= 4.44D-07

 Cycle   9  Pass 1  IDiag  1:
 E= -150.320393416478     Delta-E=       -0.000000000002 Rises=F Damp=F
 DIIS: error= 8.39D-09 at cycle   4 NSaved=   4.
 NSaved= 4 IEnMin= 4 EnMin= -150.320393416478     IErMin= 4 ErrMin= 8.39D-09
 ErrMax= 8.39D-09  0.00D+00 EMaxC= 1.00D-01 BMatC= 2.71D-15 BMatP= 2.87D-12
 IDIUse=1 WtCom= 1.00D+00 WtEn= 0.00D+00
 Coeff-Com: -0.134D-02 0.289D-01 0.440D-01 0.928D+00
 Coeff:     -0.134D-02 0.289D-01 0.440D-01 0.928D+00
 Gap=     0.073 Goal=   None    Shift=    0.000
 RMSDP=1.18D-09 MaxDP=2.42D-08 DE=-2.44D-12 OVMax= 1.80D-08

 SCF Done:  E(RB3LYP) =  -150.320393416     A.U. after    9 cycles
            NFock=  9  Conv=0.12D-08     -V/T= 2.0044
 KE= 1.496620594191D+02 PE=-4.134896219883D+02 EE= 8.435139995610D+01
 Leave Link  502 at Fri Sep  6 10:02:21 2024, MaxMem=   104857600 cpu:               0.8 elap:               0.8
 (Enter /Users/asuyarger/Applications/G16/g16/l601.exe)
 Copying SCF densities to generalized density rwf, IOpCl= 0 IROHF=0.

 **********************************************************************

            Population analysis using the SCF density.

 **********************************************************************

 Orbital symmetries:
       Occupied  (SGG) (SGU) (SGG) (SGU) (SGG) (PIU) (PIU) (PIG)
       Virtual   (PIG) (SGU) (SGG) (PIU) (PIU) (SGG) (PIG) (PIG)
                 (SGU) (SGU) (?A) (?A) (?A) (PIU) (PIU) (?B) (?B)
                 (PIG) (PIG) (PIU) (?B) (PIU) (SGG) (SGU) (PIG)
                 (PIG) (?C) (?C) (?C) (?D) (?D) (?D) (?D) (?E)
                 (?E) (?F) (?F) (?F) (?G) (?G) (?G) (?E) (?G) (SGU)
                 (PIU) (PIU) (?H) (?H) (?H) (PIG) (PIG) (SGG) (PIU)
                 (PIU) (SGG) (PIG) (PIG) (PIU) (PIU) (?H) (?H)
                 (?H) (SGU) (PHIU) (PHIU) (PHIG) (PHIG) (SGU) (DLTG)
                 (DLTG) (DLTU) (DLTU) (DLTU) (DLTU) (PIU) (PIU)
                 (PIG) (PIG) (PIG) (PIG) (SGG) (SGU) (SGG) (SGU)
 Unable to determine electronic state:  partially filled degenerate orbitals.
 Alpha  occ. eigenvalues --  -19.29177 -19.29139  -1.33500  -0.79758  -0.55547
 Alpha  occ. eigenvalues --   -0.55070  -0.54379  -0.25011
 Alpha virt. eigenvalues --   -0.17696   0.05105   0.05988   0.08275   0.08676
 Alpha virt. eigenvalues --    0.13575   0.14528   0.14839   0.23978   0.32819
 Alpha virt. eigenvalues --    0.42103   0.42105   0.52701   0.60421   0.61395
 Alpha virt. eigenvalues --    0.65518   0.65539   0.66213   0.66603   0.69004
 Alpha virt. eigenvalues --    0.70637   0.70845   0.77719   0.81187   0.98567
 Alpha virt. eigenvalues --    0.99586   1.35079   1.59265   1.59461   1.62867
 Alpha virt. eigenvalues --    1.62867   1.64657   1.67245   1.91611   1.91716
 Alpha virt. eigenvalues --    1.93703   1.96792   1.97337   2.02927   2.02932
 Alpha virt. eigenvalues --    2.07704   2.07870   2.09441   2.30009   2.44644
 Alpha virt. eigenvalues --    2.46584   2.61047   2.61234   2.69328   2.73953
 Alpha virt. eigenvalues --    2.76142   3.16592   3.61219   3.63476   4.02844
 Alpha virt. eigenvalues --    4.56586   4.59397   5.47040   5.50254   5.53094
 Alpha virt. eigenvalues --    5.57896   5.58627   5.80420   5.84477   5.84502
 Alpha virt. eigenvalues --    6.06911   6.06944   6.09809   6.37239   6.37642
 Alpha virt. eigenvalues --    6.50763   6.51129   6.58423   6.58708   6.70369
 Alpha virt. eigenvalues --    6.73260   6.91356   6.93941   7.42354   7.45728
 Alpha virt. eigenvalues --    7.52323   7.83112  12.28098  14.66749
     Molecular Orbital Coefficients:
                           1         2         3         4         5
                       (SGG)--O  (SGU)--O  (SGG)--O  (SGU)--O  (SGG)--O
     Eigenvalues --   -19.29177 -19.29139  -1.33500  -0.79758  -0.55547
   1 1   O  1S          0.68831   0.68794  -0.14993  -0.15866  -0.05740
   2        2S         -0.00592  -0.00856   0.33841   0.38621   0.13917
   3        3S          0.03627   0.03633   0.10150   0.12063   0.04407
   4        4S          0.00207  -0.00263   0.14159   0.42947   0.20789
   5        5S         -0.00077  -0.00608  -0.00005   0.09198   0.03416
   6        6PX         0.00000   0.00000   0.00000   0.00000   0.00000
   7        6PY         0.00000   0.00000   0.00000   0.00000   0.00000
   8        6PZ        -0.00154  -0.00130  -0.10994   0.08680   0.26561
   9        7PX         0.00000   0.00000   0.00000   0.00000   0.00000
  10        7PY         0.00000   0.00000   0.00000   0.00000   0.00000
  11        7PZ        -0.00030   0.00182  -0.12186   0.08459   0.30260
  12        8PX         0.00000   0.00000   0.00000   0.00000   0.00000
  13        8PY         0.00000   0.00000   0.00000   0.00000   0.00000
  14        8PZ         0.00182   0.00309  -0.02498  -0.03051   0.15723
  15        9PX         0.00000   0.00000   0.00000   0.00000   0.00000
  16        9PY         0.00000   0.00000   0.00000   0.00000   0.00000
  17        9PZ         0.00020   0.00122   0.00344  -0.01255   0.00438
  18       10D 0        0.00053   0.00009   0.01126  -0.00419  -0.01189
  19       10D+1        0.00000   0.00000   0.00000   0.00000   0.00000
  20       10D-1        0.00000   0.00000   0.00000   0.00000   0.00000
  21       10D+2       -0.00004  -0.00003  -0.00106  -0.00113  -0.00052
  22       10D-2        0.00000   0.00000   0.00000   0.00000   0.00000
  23       11D 0       -0.00096  -0.00076   0.02072  -0.00388  -0.01895
  24       11D+1        0.00000   0.00000   0.00000   0.00000   0.00000
  25       11D-1        0.00000   0.00000   0.00000   0.00000   0.00000
  26       11D+2        0.00004   0.00006  -0.00377  -0.00391  -0.00172
  27       11D-2        0.00000   0.00000   0.00000   0.00000   0.00000
  28       12D 0       -0.00098  -0.00073   0.00139   0.01391  -0.00968
  29       12D+1        0.00000   0.00000   0.00000   0.00000   0.00000
  30       12D-1        0.00000   0.00000   0.00000   0.00000   0.00000
  31       12D+2       -0.00001  -0.00001  -0.00015   0.00006  -0.00089
  32       12D-2        0.00000   0.00000   0.00000   0.00000   0.00000
  33       13F 0        0.00015  -0.00015  -0.00651   0.00002   0.00656
  34       13F+1        0.00000   0.00000   0.00000   0.00000   0.00000
  35       13F-1        0.00000   0.00000   0.00000   0.00000   0.00000
  36       13F+2        0.00000  -0.00000   0.00093  -0.00059  -0.00165
  37       13F-2        0.00000   0.00000   0.00000   0.00000   0.00000
  38       13F+3        0.00000   0.00000   0.00000   0.00000   0.00000
  39       13F-3        0.00000   0.00000   0.00000   0.00000   0.00000
  40       14F 0        0.00086   0.00012  -0.00220  -0.00025   0.00066
  41       14F+1        0.00000   0.00000   0.00000   0.00000   0.00000
  42       14F-1        0.00000   0.00000   0.00000   0.00000   0.00000
  43       14F+2        0.00001  -0.00001   0.00094   0.00013  -0.00087
  44       14F-2        0.00000   0.00000   0.00000   0.00000   0.00000
  45       14F+3        0.00000   0.00000   0.00000   0.00000   0.00000
  46       14F-3        0.00000   0.00000   0.00000   0.00000   0.00000
  47 2   O  1S          0.68831  -0.68794  -0.14993   0.15866  -0.05740
  48        2S         -0.00592   0.00856   0.33841  -0.38621   0.13917
  49        3S          0.03627  -0.03633   0.10150  -0.12063   0.04407
  50        4S          0.00207   0.00263   0.14159  -0.42947   0.20789
  51        5S         -0.00077   0.00608  -0.00005  -0.09198   0.03416
  52        6PX         0.00000   0.00000   0.00000   0.00000   0.00000
  53        6PY         0.00000   0.00000   0.00000   0.00000   0.00000
  54        6PZ         0.00154  -0.00130   0.10994   0.08680  -0.26561
  55        7PX         0.00000   0.00000   0.00000   0.00000   0.00000
  56        7PY         0.00000   0.00000   0.00000   0.00000   0.00000
  57        7PZ         0.00030   0.00182   0.12186   0.08459  -0.30260
  58        8PX         0.00000   0.00000   0.00000   0.00000   0.00000
  59        8PY         0.00000   0.00000   0.00000   0.00000   0.00000
  60        8PZ        -0.00182   0.00309   0.02498  -0.03051  -0.15723
  61        9PX         0.00000   0.00000   0.00000   0.00000   0.00000
  62        9PY         0.00000   0.00000   0.00000   0.00000   0.00000
  63        9PZ        -0.00020   0.00122  -0.00344  -0.01255  -0.00438
  64       10D 0        0.00053  -0.00009   0.01126   0.00419  -0.01189
  65       10D+1        0.00000   0.00000   0.00000   0.00000   0.00000
  66       10D-1        0.00000   0.00000   0.00000   0.00000   0.00000
  67       10D+2       -0.00004   0.00003  -0.00106   0.00113  -0.00052
  68       10D-2        0.00000   0.00000   0.00000   0.00000   0.00000
  69       11D 0       -0.00096   0.00076   0.02072   0.00388  -0.01895
  70       11D+1        0.00000   0.00000   0.00000   0.00000   0.00000
  71       11D-1        0.00000   0.00000   0.00000   0.00000   0.00000
  72       11D+2        0.00004  -0.00006  -0.00377   0.00391  -0.00172
  73       11D-2        0.00000   0.00000   0.00000   0.00000   0.00000
  74       12D 0       -0.00098   0.00073   0.00139  -0.01391  -0.00968
  75       12D+1        0.00000   0.00000   0.00000   0.00000   0.00000
  76       12D-1        0.00000   0.00000   0.00000   0.00000   0.00000
  77       12D+2       -0.00001   0.00001  -0.00015  -0.00006  -0.00089
  78       12D-2        0.00000   0.00000   0.00000   0.00000   0.00000
  79       13F 0       -0.00015  -0.00015   0.00651   0.00002  -0.00656
  80       13F+1        0.00000   0.00000   0.00000   0.00000   0.00000
  81       13F-1        0.00000   0.00000   0.00000   0.00000   0.00000
  82       13F+2       -0.00000  -0.00000  -0.00093  -0.00059   0.00165
  83       13F-2        0.00000   0.00000   0.00000   0.00000   0.00000
  84       13F+3        0.00000   0.00000   0.00000   0.00000   0.00000
  85       13F-3        0.00000   0.00000   0.00000   0.00000   0.00000
  86       14F 0       -0.00086   0.00012   0.00220  -0.00025  -0.00066
  87       14F+1        0.00000   0.00000   0.00000   0.00000   0.00000
  88       14F-1        0.00000   0.00000   0.00000   0.00000   0.00000
  89       14F+2       -0.00001  -0.00001  -0.00094   0.00013   0.00087
  90       14F-2        0.00000   0.00000   0.00000   0.00000   0.00000
  91       14F+3        0.00000   0.00000   0.00000   0.00000   0.00000
  92       14F-3        0.00000   0.00000   0.00000   0.00000   0.00000
                           6         7         8         9        10
                       (PIU)--O  (PIU)--O  (PIG)--O  (PIG)--V  (SGU)--V
     Eigenvalues --    -0.55070  -0.54379  -0.25011  -0.17696   0.05105
   1 1   O  1S          0.00000   0.00000   0.00000   0.00000  -0.03848
   2        2S          0.00000   0.00000   0.00000   0.00000   0.07797
   3        3S          0.00000   0.00000   0.00000   0.00000   0.02419
   4        4S          0.00000   0.00000   0.00000   0.00000   1.32588
   5        5S          0.00000   0.00000   0.00000   0.00000   5.68840
   6        6PX         0.00000   0.26532   0.30590   0.00000   0.00000
   7        6PY         0.25875   0.00000   0.00000   0.29723   0.00000
   8        6PZ         0.00000   0.00000   0.00000   0.00000  -0.01814
   9        7PX         0.00000   0.31372   0.36160   0.00000   0.00000
  10        7PY         0.31335   0.00000   0.00000   0.35891   0.00000
  11        7PZ         0.00000   0.00000   0.00000   0.00000  -0.06876
  12        8PX         0.00000   0.17882   0.32177   0.00000   0.00000
  13        8PY         0.18055   0.00000   0.00000   0.33381   0.00000
  14        8PZ         0.00000   0.00000   0.00000   0.00000  -0.99960
  15        9PX         0.00000   0.00826   0.09958   0.00000   0.00000
  16        9PY         0.00778   0.00000   0.00000   0.12622   0.00000
  17        9PZ         0.00000   0.00000   0.00000   0.00000  -2.05736
  18       10D 0        0.00000   0.00000   0.00000   0.00000  -0.00409
  19       10D+1        0.00000  -0.01060   0.00203   0.00000   0.00000
  20       10D-1       -0.01091   0.00000   0.00000   0.00251   0.00000
  21       10D+2        0.00000   0.00000   0.00000   0.00000  -0.00034
  22       10D-2        0.00000   0.00000   0.00000   0.00000   0.00000
  23       11D 0        0.00000   0.00000   0.00000   0.00000   0.02647
  24       11D+1        0.00000  -0.02661   0.01216   0.00000   0.00000
  25       11D-1       -0.03037   0.00000   0.00000   0.01287   0.00000
  26       11D+2        0.00000   0.00000   0.00000   0.00000  -0.00131
  27       11D-2        0.00000   0.00000   0.00000   0.00000   0.00000
  28       12D 0        0.00000   0.00000   0.00000   0.00000   0.23172
  29       12D+1        0.00000  -0.00299   0.00431   0.00000   0.00000
  30       12D-1       -0.00787   0.00000   0.00000   0.00394   0.00000
  31       12D+2        0.00000   0.00000   0.00000   0.00000   0.00158
  32       12D-2        0.00000   0.00000   0.00000   0.00000   0.00000
  33       13F 0        0.00000   0.00000   0.00000   0.00000  -0.00072
  34       13F+1        0.00000   0.00654  -0.00071   0.00000   0.00000
  35       13F-1        0.00588   0.00000   0.00000  -0.00172   0.00000
  36       13F+2        0.00000   0.00000   0.00000   0.00000   0.00008
  37       13F-2        0.00000   0.00000   0.00000   0.00000   0.00000
  38       13F+3        0.00000  -0.00186  -0.00205   0.00000   0.00000
  39       13F-3       -0.00160   0.00000   0.00000  -0.00175   0.00000
  40       14F 0        0.00000   0.00000   0.00000   0.00000  -0.01981
  41       14F+1        0.00000   0.00178  -0.00338   0.00000   0.00000
  42       14F-1        0.00252   0.00000   0.00000  -0.00412   0.00000
  43       14F+2        0.00000   0.00000   0.00000   0.00000   0.00072
  44       14F-2        0.00000   0.00000   0.00000   0.00000   0.00000
  45       14F+3        0.00000  -0.00247  -0.00219   0.00000   0.00000
  46       14F-3       -0.00242   0.00000   0.00000  -0.00208   0.00000
  47 2   O  1S          0.00000   0.00000   0.00000   0.00000   0.03848
  48        2S          0.00000   0.00000   0.00000   0.00000  -0.07797
  49        3S          0.00000   0.00000   0.00000   0.00000  -0.02419
  50        4S          0.00000   0.00000   0.00000   0.00000  -1.32588
  51        5S          0.00000   0.00000   0.00000   0.00000  -5.68840
  52        6PX         0.00000   0.26532  -0.30590   0.00000   0.00000
  53        6PY         0.25875   0.00000   0.00000  -0.29723   0.00000
  54        6PZ         0.00000   0.00000   0.00000   0.00000  -0.01814
  55        7PX         0.00000   0.31372  -0.36160   0.00000   0.00000
  56        7PY         0.31335   0.00000   0.00000  -0.35891   0.00000
  57        7PZ         0.00000   0.00000   0.00000   0.00000  -0.06876
  58        8PX         0.00000   0.17882  -0.32177   0.00000   0.00000
  59        8PY         0.18055   0.00000   0.00000  -0.33381   0.00000
  60        8PZ         0.00000   0.00000   0.00000   0.00000  -0.99960
  61        9PX         0.00000   0.00826  -0.09958   0.00000   0.00000
  62        9PY         0.00778   0.00000   0.00000  -0.12622   0.00000
  63        9PZ         0.00000   0.00000   0.00000   0.00000  -2.05736
  64       10D 0        0.00000   0.00000   0.00000   0.00000   0.00409
  65       10D+1        0.00000   0.01060   0.00203   0.00000   0.00000
  66       10D-1        0.01091   0.00000   0.00000   0.00251   0.00000
  67       10D+2        0.00000   0.00000   0.00000   0.00000   0.00034
  68       10D-2        0.00000   0.00000   0.00000   0.00000   0.00000
  69       11D 0        0.00000   0.00000   0.00000   0.00000  -0.02647
  70       11D+1        0.00000   0.02661   0.01216   0.00000   0.00000
  71       11D-1        0.03037   0.00000   0.00000   0.01287   0.00000
  72       11D+2        0.00000   0.00000   0.00000   0.00000   0.00131
  73       11D-2        0.00000   0.00000   0.00000   0.00000   0.00000
  74       12D 0        0.00000   0.00000   0.00000   0.00000  -0.23172
  75       12D+1        0.00000   0.00299   0.00431   0.00000   0.00000
  76       12D-1        0.00787   0.00000   0.00000   0.00394   0.00000
  77       12D+2        0.00000   0.00000   0.00000   0.00000  -0.00158
  78       12D-2        0.00000   0.00000   0.00000   0.00000   0.00000
  79       13F 0        0.00000   0.00000   0.00000   0.00000  -0.00072
  80       13F+1        0.00000   0.00654   0.00071   0.00000   0.00000
  81       13F-1        0.00588   0.00000   0.00000   0.00172   0.00000
  82       13F+2        0.00000   0.00000   0.00000   0.00000   0.00008
  83       13F-2        0.00000   0.00000   0.00000   0.00000   0.00000
  84       13F+3        0.00000  -0.00186   0.00205   0.00000   0.00000
  85       13F-3       -0.00160   0.00000   0.00000   0.00175   0.00000
  86       14F 0        0.00000   0.00000   0.00000   0.00000  -0.01981
  87       14F+1        0.00000   0.00178   0.00338   0.00000   0.00000
  88       14F-1        0.00252   0.00000   0.00000   0.00412   0.00000
  89       14F+2        0.00000   0.00000   0.00000   0.00000   0.00072
  90       14F-2        0.00000   0.00000   0.00000   0.00000   0.00000
  91       14F+3        0.00000  -0.00247   0.00219   0.00000   0.00000
  92       14F-3       -0.00242   0.00000   0.00000   0.00208   0.00000
                          11        12        13        14        15
                       (SGG)--V  (PIU)--V  (PIU)--V  (SGG)--V  (PIG)--V
     Eigenvalues --     0.05988   0.08275   0.08676   0.13575   0.14528
   1 1   O  1S          0.04259   0.00000   0.00000  -0.01402   0.00000
   2        2S         -0.12526   0.00000   0.00000   0.06446   0.00000
   3        3S         -0.05167   0.00000   0.00000   0.02505   0.00000
   4        4S         -0.68252   0.00000   0.00000   0.50069   0.00000
   5        5S          0.97343   0.00000   0.00000  -0.04783   0.00000
   6        6PX         0.00000   0.00000  -0.07803   0.00000  -0.07688
   7        6PY         0.00000  -0.07827   0.00000   0.00000   0.00000
   8        6PZ        -0.05977   0.00000   0.00000  -0.02048   0.00000
   9        7PX         0.00000   0.00000  -0.06870   0.00000  -0.07690
  10        7PY         0.00000  -0.07417   0.00000   0.00000   0.00000
  11        7PZ        -0.01128   0.00000   0.00000  -0.05395   0.00000
  12        8PX         0.00000   0.00000  -0.17726   0.00000  -0.05595
  13        8PY         0.00000  -0.17131   0.00000   0.00000   0.00000
  14        8PZ        -0.28682   0.00000   0.00000   0.11725   0.00000
  15        9PX         0.00000   0.00000   0.60149   0.00000   2.14085
  16        9PY         0.00000   0.59888   0.00000   0.00000   0.00000
  17        9PZ         0.35914   0.00000   0.00000   1.59877   0.00000
  18       10D 0       -0.00410   0.00000   0.00000   0.00481   0.00000
  19       10D+1        0.00000   0.00000   0.00371   0.00000  -0.00163
  20       10D-1        0.00000   0.00365   0.00000   0.00000   0.00000
  21       10D+2        0.00009   0.00000   0.00000   0.00038   0.00000
  22       10D-2        0.00000   0.00000   0.00000   0.00000   0.00000
  23       11D 0        0.00763   0.00000   0.00000   0.02609   0.00000
  24       11D+1        0.00000   0.00000   0.01164   0.00000   0.01935
  25       11D-1        0.00000   0.01382   0.00000   0.00000   0.00000
  26       11D+2        0.00174   0.00000   0.00000  -0.00112   0.00000
  27       11D-2        0.00000   0.00000   0.00000   0.00000   0.00000
  28       12D 0        0.12050   0.00000   0.00000  -0.18960   0.00000
  29       12D+1        0.00000   0.00000  -0.00159   0.00000  -0.13732
  30       12D-1        0.00000  -0.00480   0.00000   0.00000   0.00000
  31       12D+2       -0.00974   0.00000   0.00000   0.01234   0.00000
  32       12D-2        0.00000   0.00000   0.00000   0.00000   0.00000
  33       13F 0        0.00357   0.00000   0.00000  -0.00534   0.00000
  34       13F+1        0.00000   0.00000  -0.00321   0.00000  -0.00229
  35       13F-1        0.00000  -0.00308   0.00000   0.00000   0.00000
  36       13F+2        0.00025   0.00000   0.00000   0.00026   0.00000
  37       13F-2        0.00000   0.00000   0.00000   0.00000   0.00000
  38       13F+3        0.00000   0.00000   0.00071   0.00000   0.00058
  39       13F-3        0.00000   0.00066   0.00000   0.00000   0.00000
  40       14F 0       -0.03277   0.00000   0.00000   0.02754   0.00000
  41       14F+1        0.00000   0.00000   0.00116   0.00000   0.00854
  42       14F-1        0.00000   0.00114   0.00000   0.00000   0.00000
  43       14F+2        0.00061   0.00000   0.00000  -0.00109   0.00000
  44       14F-2        0.00000   0.00000   0.00000   0.00000   0.00000
  45       14F+3        0.00000   0.00000  -0.00086   0.00000  -0.00030
  46       14F-3        0.00000  -0.00083   0.00000   0.00000   0.00000
  47 2   O  1S          0.04259   0.00000   0.00000  -0.01402   0.00000
  48        2S         -0.12526   0.00000   0.00000   0.06446   0.00000
  49        3S         -0.05167   0.00000   0.00000   0.02505   0.00000
  50        4S         -0.68252   0.00000   0.00000   0.50069   0.00000
  51        5S          0.97343   0.00000   0.00000  -0.04783   0.00000
  52        6PX         0.00000   0.00000  -0.07803   0.00000   0.07688
  53        6PY         0.00000  -0.07827   0.00000   0.00000   0.00000
  54        6PZ         0.05977   0.00000   0.00000   0.02048   0.00000
  55        7PX         0.00000   0.00000  -0.06870   0.00000   0.07690
  56        7PY         0.00000  -0.07417   0.00000   0.00000   0.00000
  57        7PZ         0.01128   0.00000   0.00000   0.05395   0.00000
  58        8PX         0.00000   0.00000  -0.17726   0.00000   0.05595
  59        8PY         0.00000  -0.17131   0.00000   0.00000   0.00000
  60        8PZ         0.28682   0.00000   0.00000  -0.11725   0.00000
  61        9PX         0.00000   0.00000   0.60149   0.00000  -2.14085
  62        9PY         0.00000   0.59888   0.00000   0.00000   0.00000
  63        9PZ        -0.35914   0.00000   0.00000  -1.59877   0.00000
  64       10D 0       -0.00410   0.00000   0.00000   0.00481   0.00000
  65       10D+1        0.00000   0.00000  -0.00371   0.00000  -0.00163
  66       10D-1        0.00000  -0.00365   0.00000   0.00000   0.00000
  67       10D+2        0.00009   0.00000   0.00000   0.00038   0.00000
  68       10D-2        0.00000   0.00000   0.00000   0.00000   0.00000
  69       11D 0        0.00763   0.00000   0.00000   0.02609   0.00000
  70       11D+1        0.00000   0.00000  -0.01164   0.00000   0.01935
  71       11D-1        0.00000  -0.01382   0.00000   0.00000   0.00000
  72       11D+2        0.00174   0.00000   0.00000  -0.00112   0.00000
  73       11D-2        0.00000   0.00000   0.00000   0.00000   0.00000
  74       12D 0        0.12050   0.00000   0.00000  -0.18960   0.00000
  75       12D+1        0.00000   0.00000   0.00159   0.00000  -0.13732
  76       12D-1        0.00000   0.00480   0.00000   0.00000   0.00000
  77       12D+2       -0.00974   0.00000   0.00000   0.01234   0.00000
  78       12D-2        0.00000   0.00000   0.00000   0.00000   0.00000
  79       13F 0       -0.00357   0.00000   0.00000   0.00534   0.00000
  80       13F+1        0.00000   0.00000  -0.00321   0.00000   0.00229
  81       13F-1        0.00000  -0.00308   0.00000   0.00000   0.00000
  82       13F+2       -0.00025   0.00000   0.00000  -0.00026   0.00000
  83       13F-2        0.00000   0.00000   0.00000   0.00000   0.00000
  84       13F+3        0.00000   0.00000   0.00071   0.00000  -0.00058
  85       13F-3        0.00000   0.00066   0.00000   0.00000   0.00000
  86       14F 0        0.03277   0.00000   0.00000  -0.02754   0.00000
  87       14F+1        0.00000   0.00000   0.00116   0.00000  -0.00854
  88       14F-1        0.00000   0.00114   0.00000   0.00000   0.00000
  89       14F+2       -0.00061   0.00000   0.00000   0.00109   0.00000
  90       14F-2        0.00000   0.00000   0.00000   0.00000   0.00000
  91       14F+3        0.00000   0.00000  -0.00086   0.00000   0.00030
  92       14F-3        0.00000  -0.00083   0.00000   0.00000   0.00000
                          16        17        18        19        20
                       (PIG)--V  (SGU)--V  (SGU)--V      V         V
     Eigenvalues --     0.14839   0.23978   0.32819   0.42103   0.42105
   1 1   O  1S          0.00000   0.06563  -0.04682  -0.00378   0.00000
   2        2S          0.00000  -0.27125   0.09248   0.00494   0.00000
   3        3S          0.00000  -0.10712   0.01647   0.00096   0.00000
   4        4S          0.00000   2.38770   2.48158  -0.15878   0.00000
   5        5S          0.00000  13.67847   9.71944   0.07244   0.00000
   6        6PX         0.00000   0.00000   0.00000   0.00000   0.00000
   7        6PY        -0.08192   0.00000   0.00000   0.00000   0.00000
   8        6PZ         0.00000   0.14757  -0.27400  -0.00535   0.00000
   9        7PX         0.00000   0.00000   0.00000   0.00000   0.00000
  10        7PY        -0.08619   0.00000   0.00000   0.00000   0.00000
  11        7PZ         0.00000   0.05949  -0.45205   0.00738   0.00000
  12        8PX         0.00000   0.00000   0.00000   0.00000   0.00000
  13        8PY        -0.05243   0.00000   0.00000   0.00000   0.00000
  14        8PZ         0.00000  -2.27046  -2.52098  -0.04775   0.00000
  15        9PX         0.00000   0.00000   0.00000   0.00000   0.00000
  16        9PY         2.13457   0.00000   0.00000   0.00000   0.00000
  17        9PZ         0.00000  -3.44389  -2.14333  -0.13260   0.00000
  18       10D 0        0.00000   0.00551  -0.01949   0.00136   0.00000
  19       10D+1        0.00000   0.00000   0.00000   0.00000   0.00000
  20       10D-1       -0.00160   0.00000   0.00000   0.00000   0.00000
  21       10D+2        0.00000   0.00064  -0.00043   0.02659   0.00000
  22       10D-2        0.00000   0.00000   0.00000   0.00000   0.02678
  23       11D 0        0.00000   0.14044   0.07462   0.00334   0.00000
  24       11D+1        0.00000   0.00000   0.00000   0.00000   0.00000
  25       11D-1        0.01775   0.00000   0.00000   0.00000   0.00000
  26       11D+2        0.00000   0.00315  -0.00260  -0.03397   0.00000
  27       11D-2        0.00000   0.00000   0.00000   0.00000  -0.03407
  28       12D 0        0.00000   0.66596   0.24712   0.11166   0.00000
  29       12D+1        0.00000   0.00000   0.00000   0.00000   0.00000
  30       12D-1       -0.13896   0.00000   0.00000   0.00000   0.00000
  31       12D+2        0.00000  -0.00402  -0.01116   0.57341   0.00000
  32       12D-2        0.00000   0.00000   0.00000   0.00000   0.57563
  33       13F 0        0.00000  -0.00844  -0.00645   0.00104   0.00000
  34       13F+1        0.00000   0.00000   0.00000   0.00000   0.00000
  35       13F-1       -0.00203   0.00000   0.00000   0.00000   0.00000
  36       13F+2        0.00000  -0.00069   0.00127  -0.00613   0.00000
  37       13F-2        0.00000   0.00000   0.00000   0.00000  -0.00624
  38       13F+3        0.00000   0.00000   0.00000   0.00000   0.00000
  39       13F-3        0.00055   0.00000   0.00000   0.00000   0.00000
  40       14F 0        0.00000  -0.06168  -0.03177  -0.01570   0.00000
  41       14F+1        0.00000   0.00000   0.00000   0.00000   0.00000
  42       14F-1        0.00963   0.00000   0.00000   0.00000   0.00000
  43       14F+2        0.00000  -0.00168   0.00294   0.00465   0.00000
  44       14F-2        0.00000   0.00000   0.00000   0.00000   0.00508
  45       14F+3        0.00000   0.00000   0.00000   0.00000   0.00000
  46       14F-3       -0.00022   0.00000   0.00000   0.00000   0.00000
  47 2   O  1S          0.00000  -0.06563   0.04682  -0.00378   0.00000
  48        2S          0.00000   0.27125  -0.09248   0.00494   0.00000
  49        3S          0.00000   0.10712  -0.01647   0.00096   0.00000
  50        4S          0.00000  -2.38770  -2.48158  -0.15878   0.00000
  51        5S          0.00000 -13.67847  -9.71944   0.07244   0.00000
  52        6PX         0.00000   0.00000   0.00000   0.00000   0.00000
  53        6PY         0.08192   0.00000   0.00000   0.00000   0.00000
  54        6PZ         0.00000   0.14757  -0.27400   0.00535   0.00000
  55        7PX         0.00000   0.00000   0.00000   0.00000   0.00000
  56        7PY         0.08619   0.00000   0.00000   0.00000   0.00000
  57        7PZ         0.00000   0.05949  -0.45205  -0.00738   0.00000
  58        8PX         0.00000   0.00000   0.00000   0.00000   0.00000
  59        8PY         0.05243   0.00000   0.00000   0.00000   0.00000
  60        8PZ         0.00000  -2.27046  -2.52098   0.04775   0.00000
  61        9PX         0.00000   0.00000   0.00000   0.00000   0.00000
  62        9PY        -2.13457   0.00000   0.00000   0.00000   0.00000
  63        9PZ         0.00000  -3.44389  -2.14333   0.13260   0.00000
  64       10D 0        0.00000  -0.00551   0.01949   0.00136   0.00000
  65       10D+1        0.00000   0.00000   0.00000   0.00000   0.00000
  66       10D-1       -0.00160   0.00000   0.00000   0.00000   0.00000
  67       10D+2        0.00000  -0.00064   0.00043   0.02659   0.00000
  68       10D-2        0.00000   0.00000   0.00000   0.00000   0.02678
  69       11D 0        0.00000  -0.14044  -0.07462   0.00334   0.00000
  70       11D+1        0.00000   0.00000   0.00000   0.00000   0.00000
  71       11D-1        0.01775   0.00000   0.00000   0.00000   0.00000
  72       11D+2        0.00000  -0.00315   0.00260  -0.03397   0.00000
  73       11D-2        0.00000   0.00000   0.00000   0.00000  -0.03407
  74       12D 0        0.00000  -0.66596  -0.24712   0.11166   0.00000
  75       12D+1        0.00000   0.00000   0.00000   0.00000   0.00000
  76       12D-1       -0.13896   0.00000   0.00000   0.00000   0.00000
  77       12D+2        0.00000   0.00402   0.01116   0.57341   0.00000
  78       12D-2        0.00000   0.00000   0.00000   0.00000   0.57563
  79       13F 0        0.00000  -0.00844  -0.00645  -0.00104   0.00000
  80       13F+1        0.00000   0.00000   0.00000   0.00000   0.00000
  81       13F-1        0.00203   0.00000   0.00000   0.00000   0.00000
  82       13F+2        0.00000  -0.00069   0.00127   0.00613   0.00000
  83       13F-2        0.00000   0.00000   0.00000   0.00000   0.00624
  84       13F+3        0.00000   0.00000   0.00000   0.00000   0.00000
  85       13F-3       -0.00055   0.00000   0.00000   0.00000   0.00000
  86       14F 0        0.00000  -0.06168  -0.03177   0.01570   0.00000
  87       14F+1        0.00000   0.00000   0.00000   0.00000   0.00000
  88       14F-1       -0.00963   0.00000   0.00000   0.00000   0.00000
  89       14F+2        0.00000  -0.00168   0.00294  -0.00465   0.00000
  90       14F-2        0.00000   0.00000   0.00000   0.00000  -0.00508
  91       14F+3        0.00000   0.00000   0.00000   0.00000   0.00000
  92       14F-3        0.00022   0.00000   0.00000   0.00000   0.00000
                          21        22        23        24        25
                           V     (PIU)--V  (PIU)--V      V         V
     Eigenvalues --     0.52701   0.60421   0.61395   0.65518   0.65539
   1 1   O  1S          0.03905   0.00000   0.00000   0.00000  -0.00960
   2        2S          0.00034   0.00000   0.00000   0.00000   0.01044
   3        3S         -0.00218   0.00000   0.00000   0.00000   0.00441
   4        4S          1.51416   0.00000   0.00000   0.00000   0.88188
   5        5S         -0.60169   0.00000   0.00000   0.00000   1.26051
   6        6PX         0.00000   0.00000  -0.05251   0.00000   0.00000
   7        6PY         0.00000  -0.04717   0.00000   0.00000   0.00000
   8        6PZ         0.07139   0.00000   0.00000   0.00000  -0.01359
   9        7PX         0.00000   0.00000  -0.14729   0.00000   0.00000
  10        7PY         0.00000  -0.13495   0.00000   0.00000   0.00000
  11        7PZ        -0.03061   0.00000   0.00000   0.00000  -0.03934
  12        8PX         0.00000   0.00000   0.72986   0.00000   0.00000
  13        8PY         0.00000   0.71796   0.00000   0.00000   0.00000
  14        8PZ         0.40693   0.00000   0.00000   0.00000  -0.63293
  15        9PX         0.00000   0.00000  -0.29010   0.00000   0.00000
  16        9PY         0.00000  -0.28536   0.00000   0.00000   0.00000
  17        9PZ         1.30872   0.00000   0.00000   0.00000  -0.27137
  18       10D 0       -0.02267   0.00000   0.00000   0.00000   0.00017
  19       10D+1        0.00000   0.00000   0.03156   0.00000   0.00000
  20       10D-1        0.00000   0.03135   0.00000   0.00000   0.00000
  21       10D+2        0.00271   0.00000   0.00000   0.00000   0.02525
  22       10D-2        0.00000   0.00000   0.00000   0.02556   0.00000
  23       11D 0       -0.01485   0.00000   0.00000   0.00000   0.00717
  24       11D+1        0.00000   0.00000  -0.04148   0.00000   0.00000
  25       11D-1        0.00000  -0.03797   0.00000   0.00000   0.00000
  26       11D+2       -0.00568   0.00000   0.00000   0.00000  -0.06044
  27       11D-2        0.00000   0.00000   0.00000  -0.06061   0.00000
  28       12D 0       -1.30392   0.00000   0.00000   0.00000   0.23478
  29       12D+1        0.00000   0.00000   0.79375   0.00000   0.00000
  30       12D-1        0.00000   0.79665   0.00000   0.00000   0.00000
  31       12D+2        0.04911   0.00000   0.00000   0.00000   1.21254
  32       12D-2        0.00000   0.00000   0.00000   1.21982   0.00000
  33       13F 0       -0.00633   0.00000   0.00000   0.00000   0.00144
  34       13F+1        0.00000   0.00000   0.00231   0.00000   0.00000
  35       13F-1        0.00000   0.00276   0.00000   0.00000   0.00000
  36       13F+2       -0.00143   0.00000   0.00000   0.00000   0.01493
  37       13F-2        0.00000   0.00000   0.00000   0.01494   0.00000
  38       13F+3        0.00000   0.00000   0.00037   0.00000   0.00000
  39       13F-3        0.00000   0.00025   0.00000   0.00000   0.00000
  40       14F 0        0.13651   0.00000   0.00000   0.00000  -0.01347
  41       14F+1        0.00000   0.00000  -0.04560   0.00000   0.00000
  42       14F-1        0.00000  -0.04759   0.00000   0.00000   0.00000
  43       14F+2        0.00392   0.00000   0.00000   0.00000  -0.08348
  44       14F-2        0.00000   0.00000   0.00000  -0.08385   0.00000
  45       14F+3        0.00000   0.00000  -0.00025   0.00000   0.00000
  46       14F-3        0.00000   0.00008   0.00000   0.00000   0.00000
  47 2   O  1S          0.03905   0.00000   0.00000   0.00000   0.00960
  48        2S          0.00034   0.00000   0.00000   0.00000  -0.01044
  49        3S         -0.00218   0.00000   0.00000   0.00000  -0.00441
  50        4S          1.51416   0.00000   0.00000   0.00000  -0.88188
  51        5S         -0.60169   0.00000   0.00000   0.00000  -1.26051
  52        6PX         0.00000   0.00000  -0.05251   0.00000   0.00000
  53        6PY         0.00000  -0.04717   0.00000   0.00000   0.00000
  54        6PZ        -0.07139   0.00000   0.00000   0.00000  -0.01359
  55        7PX         0.00000   0.00000  -0.14729   0.00000   0.00000
  56        7PY         0.00000  -0.13495   0.00000   0.00000   0.00000
  57        7PZ         0.03061   0.00000   0.00000   0.00000  -0.03934
  58        8PX         0.00000   0.00000   0.72986   0.00000   0.00000
  59        8PY         0.00000   0.71796   0.00000   0.00000   0.00000
  60        8PZ        -0.40693   0.00000   0.00000   0.00000  -0.63293
  61        9PX         0.00000   0.00000  -0.29010   0.00000   0.00000
  62        9PY         0.00000  -0.28536   0.00000   0.00000   0.00000
  63        9PZ        -1.30872   0.00000   0.00000   0.00000  -0.27137
  64       10D 0       -0.02267   0.00000   0.00000   0.00000  -0.00017
  65       10D+1        0.00000   0.00000  -0.03156   0.00000   0.00000
  66       10D-1        0.00000  -0.03135   0.00000   0.00000   0.00000
  67       10D+2        0.00271   0.00000   0.00000   0.00000  -0.02525
  68       10D-2        0.00000   0.00000   0.00000  -0.02556   0.00000
  69       11D 0       -0.01485   0.00000   0.00000   0.00000  -0.00717
  70       11D+1        0.00000   0.00000   0.04148   0.00000   0.00000
  71       11D-1        0.00000   0.03797   0.00000   0.00000   0.00000
  72       11D+2       -0.00568   0.00000   0.00000   0.00000   0.06044
  73       11D-2        0.00000   0.00000   0.00000   0.06061   0.00000
  74       12D 0       -1.30392   0.00000   0.00000   0.00000  -0.23478
  75       12D+1        0.00000   0.00000  -0.79375   0.00000   0.00000
  76       12D-1        0.00000  -0.79665   0.00000   0.00000   0.00000
  77       12D+2        0.04911   0.00000   0.00000   0.00000  -1.21254
  78       12D-2        0.00000   0.00000   0.00000  -1.21982   0.00000
  79       13F 0        0.00633   0.00000   0.00000   0.00000   0.00144
  80       13F+1        0.00000   0.00000   0.00231   0.00000   0.00000
  81       13F-1        0.00000   0.00276   0.00000   0.00000   0.00000
  82       13F+2        0.00143   0.00000   0.00000   0.00000   0.01493
  83       13F-2        0.00000   0.00000   0.00000   0.01494   0.00000
  84       13F+3        0.00000   0.00000   0.00037   0.00000   0.00000
  85       13F-3        0.00000   0.00025   0.00000   0.00000   0.00000
  86       14F 0       -0.13651   0.00000   0.00000   0.00000  -0.01347
  87       14F+1        0.00000   0.00000  -0.04560   0.00000   0.00000
  88       14F-1        0.00000  -0.04759   0.00000   0.00000   0.00000
  89       14F+2       -0.00392   0.00000   0.00000   0.00000  -0.08348
  90       14F-2        0.00000   0.00000   0.00000  -0.08385   0.00000
  91       14F+3        0.00000   0.00000  -0.00025   0.00000   0.00000
  92       14F-3        0.00000   0.00008   0.00000   0.00000   0.00000
                          26        27        28        29        30
                       (PIG)--V  (PIG)--V  (PIU)--V      V     (PIU)--V
     Eigenvalues --     0.66213   0.66603   0.69004   0.70637   0.70845
   1 1   O  1S          0.00000   0.00000   0.00000  -0.07191   0.00000
   2        2S          0.00000   0.00000   0.00000   0.05634   0.00000
   3        3S          0.00000   0.00000   0.00000   0.03877   0.00000
   4        4S          0.00000   0.00000   0.00000   6.16994   0.00000
   5        5S          0.00000   0.00000   0.00000   7.78567   0.00000
   6        6PX         0.00000  -0.15324   0.00000   0.00000  -0.18811
   7        6PY        -0.15608   0.00000  -0.18950   0.00000   0.00000
   8        6PZ         0.00000   0.00000   0.00000  -0.14626   0.00000
   9        7PX         0.00000  -0.30854   0.00000   0.00000  -0.50054
  10        7PY        -0.31756   0.00000  -0.50816   0.00000   0.00000
  11        7PZ         0.00000   0.00000   0.00000  -0.30934   0.00000
  12        8PX         0.00000  -1.77697   0.00000   0.00000   0.70007
  13        8PY        -1.73325   0.00000   0.71237   0.00000   0.00000
  14        8PZ         0.00000   0.00000   0.00000  -4.12569   0.00000
  15        9PX         0.00000  -1.38584   0.00000   0.00000  -0.30071
  16        9PY        -1.39196   0.00000  -0.31016   0.00000   0.00000
  17        9PZ         0.00000   0.00000   0.00000  -1.72142   0.00000
  18       10D 0        0.00000   0.00000   0.00000   0.00776   0.00000
  19       10D+1        0.00000   0.01614   0.00000   0.00000  -0.00814
  20       10D-1        0.01587   0.00000  -0.00708   0.00000   0.00000
  21       10D+2        0.00000   0.00000   0.00000  -0.00368   0.00000
  22       10D-2        0.00000   0.00000   0.00000   0.00000   0.00000
  23       11D 0        0.00000   0.00000   0.00000  -0.04399   0.00000
  24       11D+1        0.00000  -0.00968   0.00000   0.00000   0.04454
  25       11D-1       -0.00862   0.00000   0.04432   0.00000   0.00000
  26       11D+2        0.00000   0.00000   0.00000   0.00673   0.00000
  27       11D-2        0.00000   0.00000   0.00000   0.00000   0.00000
  28       12D 0        0.00000   0.00000   0.00000   1.86157   0.00000
  29       12D+1        0.00000   2.03630   0.00000   0.00000  -0.34728
  30       12D-1        2.01016   0.00000  -0.33468   0.00000   0.00000
  31       12D+2        0.00000   0.00000   0.00000  -0.13178   0.00000
  32       12D-2        0.00000   0.00000   0.00000   0.00000   0.00000
  33       13F 0        0.00000   0.00000   0.00000   0.01952   0.00000
  34       13F+1        0.00000   0.02074   0.00000   0.00000   0.00194
  35       13F-1        0.02087   0.00000   0.00181   0.00000   0.00000
  36       13F+2        0.00000   0.00000   0.00000  -0.00069   0.00000
  37       13F-2        0.00000   0.00000   0.00000   0.00000   0.00000
  38       13F+3        0.00000   0.00126   0.00000   0.00000   0.00222
  39       13F-3        0.00113   0.00000   0.00205   0.00000   0.00000
  40       14F 0        0.00000   0.00000   0.00000  -0.09233   0.00000
  41       14F+1        0.00000  -0.14078   0.00000   0.00000  -0.02073
  42       14F-1       -0.13883   0.00000  -0.02054   0.00000   0.00000
  43       14F+2        0.00000   0.00000   0.00000   0.00781   0.00000
  44       14F-2        0.00000   0.00000   0.00000   0.00000   0.00000
  45       14F+3        0.00000  -0.00251   0.00000   0.00000  -0.00749
  46       14F-3       -0.00224   0.00000  -0.00712   0.00000   0.00000
  47 2   O  1S          0.00000   0.00000   0.00000   0.07191   0.00000
  48        2S          0.00000   0.00000   0.00000  -0.05634   0.00000
  49        3S          0.00000   0.00000   0.00000  -0.03877   0.00000
  50        4S          0.00000   0.00000   0.00000  -6.16994   0.00000
  51        5S          0.00000   0.00000   0.00000  -7.78567   0.00000
  52        6PX         0.00000   0.15324   0.00000   0.00000  -0.18811
  53        6PY         0.15608   0.00000  -0.18950   0.00000   0.00000
  54        6PZ         0.00000   0.00000   0.00000  -0.14626   0.00000
  55        7PX         0.00000   0.30854   0.00000   0.00000  -0.50054
  56        7PY         0.31756   0.00000  -0.50816   0.00000   0.00000
  57        7PZ         0.00000   0.00000   0.00000  -0.30934   0.00000
  58        8PX         0.00000   1.77697   0.00000   0.00000   0.70007
  59        8PY         1.73325   0.00000   0.71237   0.00000   0.00000
  60        8PZ         0.00000   0.00000   0.00000  -4.12569   0.00000
  61        9PX         0.00000   1.38584   0.00000   0.00000  -0.30071
  62        9PY         1.39196   0.00000  -0.31016   0.00000   0.00000
  63        9PZ         0.00000   0.00000   0.00000  -1.72142   0.00000
  64       10D 0        0.00000   0.00000   0.00000  -0.00776   0.00000
  65       10D+1        0.00000   0.01614   0.00000   0.00000   0.00814
  66       10D-1        0.01587   0.00000   0.00708   0.00000   0.00000
  67       10D+2        0.00000   0.00000   0.00000   0.00368   0.00000
  68       10D-2        0.00000   0.00000   0.00000   0.00000   0.00000
  69       11D 0        0.00000   0.00000   0.00000   0.04399   0.00000
  70       11D+1        0.00000  -0.00968   0.00000   0.00000  -0.04454
  71       11D-1       -0.00862   0.00000  -0.04432   0.00000   0.00000
  72       11D+2        0.00000   0.00000   0.00000  -0.00673   0.00000
  73       11D-2        0.00000   0.00000   0.00000   0.00000   0.00000
  74       12D 0        0.00000   0.00000   0.00000  -1.86157   0.00000
  75       12D+1        0.00000   2.03630   0.00000   0.00000   0.34728
  76       12D-1        2.01016   0.00000   0.33468   0.00000   0.00000
  77       12D+2        0.00000   0.00000   0.00000   0.13178   0.00000
  78       12D-2        0.00000   0.00000   0.00000   0.00000   0.00000
  79       13F 0        0.00000   0.00000   0.00000   0.01952   0.00000
  80       13F+1        0.00000  -0.02074   0.00000   0.00000   0.00194
  81       13F-1       -0.02087   0.00000   0.00181   0.00000   0.00000
  82       13F+2        0.00000   0.00000   0.00000  -0.00069   0.00000
  83       13F-2        0.00000   0.00000   0.00000   0.00000   0.00000
  84       13F+3        0.00000  -0.00126   0.00000   0.00000   0.00222
  85       13F-3       -0.00113   0.00000   0.00205   0.00000   0.00000
  86       14F 0        0.00000   0.00000   0.00000  -0.09233   0.00000
  87       14F+1        0.00000   0.14078   0.00000   0.00000  -0.02073
  88       14F-1        0.13883   0.00000  -0.02054   0.00000   0.00000
  89       14F+2        0.00000   0.00000   0.00000   0.00781   0.00000
  90       14F-2        0.00000   0.00000   0.00000   0.00000   0.00000
  91       14F+3        0.00000   0.00251   0.00000   0.00000  -0.00749
  92       14F-3        0.00224   0.00000  -0.00712   0.00000   0.00000
                          31        32        33        34        35
                       (SGG)--V  (SGU)--V  (PIG)--V  (PIG)--V      V
     Eigenvalues --     0.77719   0.81187   0.98567   0.99586   1.35079
   1 1   O  1S          0.07885  -0.05403   0.00000   0.00000   0.02022
   2        2S         -0.18234  -0.02239   0.00000   0.00000  -0.58894
   3        3S         -0.03459  -0.06485   0.00000   0.00000  -0.16358
   4        4S          2.06746  10.49451   0.00000   0.00000  -0.44913
   5        5S         -1.02666  15.08533   0.00000   0.00000   0.29252
   6        6PX         0.00000   0.00000   0.00000  -0.13286   0.00000
   7        6PY         0.00000   0.00000  -0.13313   0.00000   0.00000
   8        6PZ        -0.11618   0.23537   0.00000   0.00000   0.06399
   9        7PX         0.00000   0.00000   0.00000  -0.32304   0.00000
  10        7PY         0.00000   0.00000  -0.32693   0.00000   0.00000
  11        7PZ        -0.65897  -0.09646   0.00000   0.00000   0.21940
  12        8PX         0.00000   0.00000   0.00000   6.48960   0.00000
  13        8PY         0.00000   0.00000   6.47353   0.00000   0.00000
  14        8PZ         1.94217  -8.56394   0.00000   0.00000  -1.12166
  15        9PX         0.00000   0.00000   0.00000   0.13753   0.00000
  16        9PY         0.00000   0.00000   0.14120   0.00000   0.00000
  17        9PZ         0.01021  -2.93143   0.00000   0.00000  -0.45205
  18       10D 0        0.02958  -0.01958   0.00000   0.00000   0.00197
  19       10D+1        0.00000   0.00000   0.00000   0.02412   0.00000
  20       10D-1        0.00000   0.00000   0.02360   0.00000   0.00000
  21       10D+2        0.00154  -0.00118   0.00000   0.00000   0.00084
  22       10D-2        0.00000   0.00000   0.00000   0.00000   0.00000
  23       11D 0       -0.10698   0.49978   0.00000   0.00000  -0.24096
  24       11D+1        0.00000   0.00000   0.00000  -0.32149   0.00000
  25       11D-1        0.00000   0.00000  -0.31886   0.00000   0.00000
  26       11D+2       -0.00116   0.00178   0.00000   0.00000  -0.03413
  27       11D-2        0.00000   0.00000   0.00000   0.00000   0.00000
  28       12D 0       -0.96968   1.61913   0.00000   0.00000   1.24697
  29       12D+1        0.00000   0.00000   0.00000  -3.56505   0.00000
  30       12D-1        0.00000   0.00000  -3.56362   0.00000   0.00000
  31       12D+2        0.00484  -0.02611   0.00000   0.00000   0.02721
  32       12D-2        0.00000   0.00000   0.00000   0.00000   0.00000
  33       13F 0       -0.01970  -0.03625   0.00000   0.00000  -0.01598
  34       13F+1        0.00000   0.00000   0.00000  -0.02644   0.00000
  35       13F-1        0.00000   0.00000  -0.02579   0.00000   0.00000
  36       13F+2        0.00082  -0.00142   0.00000   0.00000  -0.00275
  37       13F-2        0.00000   0.00000   0.00000   0.00000   0.00000
  38       13F+3        0.00000   0.00000   0.00000   0.00139   0.00000
  39       13F-3        0.00000   0.00000   0.00124   0.00000   0.00000
  40       14F 0        0.26103  -0.15048   0.00000   0.00000   0.24125
  41       14F+1        0.00000   0.00000   0.00000   0.44716   0.00000
  42       14F-1        0.00000   0.00000   0.44037   0.00000   0.00000
  43       14F+2       -0.00197   0.00379   0.00000   0.00000   0.02717
  44       14F-2        0.00000   0.00000   0.00000   0.00000   0.00000
  45       14F+3        0.00000   0.00000   0.00000  -0.00601   0.00000
  46       14F-3        0.00000   0.00000  -0.00551   0.00000   0.00000
  47 2   O  1S          0.07885   0.05403   0.00000   0.00000   0.02022
  48        2S         -0.18234   0.02239   0.00000   0.00000  -0.58894
  49        3S         -0.03459   0.06485   0.00000   0.00000  -0.16358
  50        4S          2.06746 -10.49451   0.00000   0.00000  -0.44913
  51        5S         -1.02666 -15.08533   0.00000   0.00000   0.29252
  52        6PX         0.00000   0.00000   0.00000   0.13286   0.00000
  53        6PY         0.00000   0.00000   0.13313   0.00000   0.00000
  54        6PZ         0.11618   0.23537   0.00000   0.00000  -0.06399
  55        7PX         0.00000   0.00000   0.00000   0.32304   0.00000
  56        7PY         0.00000   0.00000   0.32693   0.00000   0.00000
  57        7PZ         0.65897  -0.09646   0.00000   0.00000  -0.21940
  58        8PX         0.00000   0.00000   0.00000  -6.48960   0.00000
  59        8PY         0.00000   0.00000  -6.47353   0.00000   0.00000
  60        8PZ        -1.94217  -8.56394   0.00000   0.00000   1.12166
  61        9PX         0.00000   0.00000   0.00000  -0.13753   0.00000
  62        9PY         0.00000   0.00000  -0.14120   0.00000   0.00000
  63        9PZ        -0.01021  -2.93143   0.00000   0.00000   0.45205
  64       10D 0        0.02958   0.01958   0.00000   0.00000   0.00197
  65       10D+1        0.00000   0.00000   0.00000   0.02412   0.00000
  66       10D-1        0.00000   0.00000   0.02360   0.00000   0.00000
  67       10D+2        0.00154   0.00118   0.00000   0.00000   0.00084
  68       10D-2        0.00000   0.00000   0.00000   0.00000   0.00000
  69       11D 0       -0.10698  -0.49978   0.00000   0.00000  -0.24096
  70       11D+1        0.00000   0.00000   0.00000  -0.32149   0.00000
  71       11D-1        0.00000   0.00000  -0.31886   0.00000   0.00000
  72       11D+2       -0.00116  -0.00178   0.00000   0.00000  -0.03413
  73       11D-2        0.00000   0.00000   0.00000   0.00000   0.00000
  74       12D 0       -0.96968  -1.61913   0.00000   0.00000   1.24697
  75       12D+1        0.00000   0.00000   0.00000  -3.56505   0.00000
  76       12D-1        0.00000   0.00000  -3.56362   0.00000   0.00000
  77       12D+2        0.00484   0.02611   0.00000   0.00000   0.02721
  78       12D-2        0.00000   0.00000   0.00000   0.00000   0.00000
  79       13F 0        0.01970  -0.03625   0.00000   0.00000   0.01598
  80       13F+1        0.00000   0.00000   0.00000   0.02644   0.00000
  81       13F-1        0.00000   0.00000   0.02579   0.00000   0.00000
  82       13F+2       -0.00082  -0.00142   0.00000   0.00000   0.00275
  83       13F-2        0.00000   0.00000   0.00000   0.00000   0.00000
  84       13F+3        0.00000   0.00000   0.00000  -0.00139   0.00000
  85       13F-3        0.00000   0.00000  -0.00124   0.00000   0.00000
  86       14F 0       -0.26103  -0.15048   0.00000   0.00000  -0.24125
  87       14F+1        0.00000   0.00000   0.00000  -0.44716   0.00000
  88       14F-1        0.00000   0.00000  -0.44037   0.00000   0.00000
  89       14F+2        0.00197   0.00379   0.00000   0.00000  -0.02717
  90       14F-2        0.00000   0.00000   0.00000   0.00000   0.00000
  91       14F+3        0.00000   0.00000   0.00000   0.00601   0.00000
  92       14F-3        0.00000   0.00000   0.00551   0.00000   0.00000
                          36        37        38        39        40
                           V         V         V         V         V
     Eigenvalues --     1.59265   1.59461   1.62867   1.62867   1.64657
   1 1   O  1S          0.00000  -0.00015   0.00000   0.00000   0.00000
   2        2S          0.00000  -0.03238   0.00000   0.00000   0.00000
   3        3S          0.00000  -0.00526   0.00000   0.00000   0.00000
   4        4S          0.00000  -0.01173   0.00000   0.00000   0.00000
   5        5S          0.00000   0.01113   0.00000   0.00000   0.00000
   6        6PX         0.00000   0.00000   0.00326   0.00000   0.00000
   7        6PY         0.00000   0.00000   0.00000   0.00706   0.09066
   8        6PZ         0.00000   0.00331   0.00000   0.00000   0.00000
   9        7PX         0.00000   0.00000  -0.00543   0.00000   0.00000
  10        7PY         0.00000   0.00000   0.00000  -0.00215   0.05753
  11        7PZ         0.00000   0.01557   0.00000   0.00000   0.00000
  12        8PX         0.00000   0.00000   0.00475   0.00000   0.00000
  13        8PY         0.00000   0.00000   0.00000  -0.00505  -0.21289
  14        8PZ         0.00000  -0.06280   0.00000   0.00000   0.00000
  15        9PX         0.00000   0.00000  -0.00174   0.00000   0.00000
  16        9PY         0.00000   0.00000   0.00000   0.00071   0.05353
  17        9PZ         0.00000  -0.01388   0.00000   0.00000   0.00000
  18       10D 0        0.00000   0.00094   0.00000   0.00000   0.00000
  19       10D+1        0.00000   0.00000   0.00021   0.00000   0.00000
  20       10D-1        0.00000   0.00000   0.00000   0.00137   0.02794
  21       10D+2        0.00000   0.01047   0.00000   0.00000   0.00000
  22       10D-2        0.01056   0.00000   0.00000   0.00000   0.00000
  23       11D 0        0.00000  -0.00512   0.00000   0.00000   0.00000
  24       11D+1        0.00000   0.00000   0.01798   0.00000   0.00000
  25       11D-1        0.00000   0.00000   0.00000   0.05046   0.76795
  26       11D+2        0.00000   0.62936   0.00000   0.00000   0.00000
  27       11D-2        0.63055   0.00000   0.00000   0.00000   0.00000
  28       12D 0        0.00000   0.05758   0.00000   0.00000   0.00000
  29       12D+1        0.00000   0.00000  -0.01862   0.00000   0.00000
  30       12D-1        0.00000   0.00000   0.00000  -0.04590  -0.64642
  31       12D+2        0.00000  -0.39696   0.00000   0.00000   0.00000
  32       12D-2       -0.39810   0.00000   0.00000   0.00000   0.00000
  33       13F 0        0.00000  -0.00262   0.00000   0.00000   0.00000
  34       13F+1        0.00000   0.00000   0.00007   0.00000   0.00000
  35       13F-1        0.00000   0.00000   0.00000  -0.00060  -0.01671
  36       13F+2        0.00000   0.02648   0.00000   0.00000   0.00000
  37       13F-2        0.02661   0.00000   0.00000   0.00000   0.00000
  38       13F+3        0.00000   0.00000  -0.07536   0.00000   0.00000
  39       13F-3        0.00000   0.00000   0.00000  -0.07524   0.00479
  40       14F 0        0.00000   0.02486   0.00000   0.00000   0.00000
  41       14F+1        0.00000   0.00000   0.00298   0.00000   0.00000
  42       14F-1        0.00000   0.00000   0.00000   0.00651   0.10163
  43       14F+2        0.00000  -0.30006   0.00000   0.00000   0.00000
  44       14F-2       -0.30096   0.00000   0.00000   0.00000   0.00000
  45       14F+3        0.00000   0.00000   0.65493   0.00000   0.00000
  46       14F-3        0.00000   0.00000   0.00000   0.65372  -0.04254
  47 2   O  1S          0.00000  -0.00015   0.00000   0.00000   0.00000
  48        2S          0.00000  -0.03238   0.00000   0.00000   0.00000
  49        3S          0.00000  -0.00526   0.00000   0.00000   0.00000
  50        4S          0.00000  -0.01173   0.00000   0.00000   0.00000
  51        5S          0.00000   0.01113   0.00000   0.00000   0.00000
  52        6PX         0.00000   0.00000   0.00326   0.00000   0.00000
  53        6PY         0.00000   0.00000   0.00000   0.00706   0.09066
  54        6PZ         0.00000  -0.00331   0.00000   0.00000   0.00000
  55        7PX         0.00000   0.00000  -0.00543   0.00000   0.00000
  56        7PY         0.00000   0.00000   0.00000  -0.00215   0.05753
  57        7PZ         0.00000  -0.01557   0.00000   0.00000   0.00000
  58        8PX         0.00000   0.00000   0.00475   0.00000   0.00000
  59        8PY         0.00000   0.00000   0.00000  -0.00505  -0.21289
  60        8PZ         0.00000   0.06280   0.00000   0.00000   0.00000
  61        9PX         0.00000   0.00000  -0.00174   0.00000   0.00000
  62        9PY         0.00000   0.00000   0.00000   0.00071   0.05353
  63        9PZ         0.00000   0.01388   0.00000   0.00000   0.00000
  64       10D 0        0.00000   0.00094   0.00000   0.00000   0.00000
  65       10D+1        0.00000   0.00000  -0.00021   0.00000   0.00000
  66       10D-1        0.00000   0.00000   0.00000  -0.00137  -0.02794
  67       10D+2        0.00000   0.01047   0.00000   0.00000   0.00000
  68       10D-2        0.01056   0.00000   0.00000   0.00000   0.00000
  69       11D 0        0.00000  -0.00512   0.00000   0.00000   0.00000
  70       11D+1        0.00000   0.00000  -0.01798   0.00000   0.00000
  71       11D-1        0.00000   0.00000   0.00000  -0.05046  -0.76795
  72       11D+2        0.00000   0.62936   0.00000   0.00000   0.00000
  73       11D-2        0.63055   0.00000   0.00000   0.00000   0.00000
  74       12D 0        0.00000   0.05758   0.00000   0.00000   0.00000
  75       12D+1        0.00000   0.00000   0.01862   0.00000   0.00000
  76       12D-1        0.00000   0.00000   0.00000   0.04590   0.64642
  77       12D+2        0.00000  -0.39696   0.00000   0.00000   0.00000
  78       12D-2       -0.39810   0.00000   0.00000   0.00000   0.00000
  79       13F 0        0.00000   0.00262   0.00000   0.00000   0.00000
  80       13F+1        0.00000   0.00000   0.00007   0.00000   0.00000
  81       13F-1        0.00000   0.00000   0.00000  -0.00060  -0.01671
  82       13F+2        0.00000  -0.02648   0.00000   0.00000   0.00000
  83       13F-2       -0.02661   0.00000   0.00000   0.00000   0.00000
  84       13F+3        0.00000   0.00000  -0.07536   0.00000   0.00000
  85       13F-3        0.00000   0.00000   0.00000  -0.07524   0.00479
  86       14F 0        0.00000  -0.02486   0.00000   0.00000   0.00000
  87       14F+1        0.00000   0.00000   0.00298   0.00000   0.00000
  88       14F-1        0.00000   0.00000   0.00000   0.00651   0.10163
  89       14F+2        0.00000   0.30006   0.00000   0.00000   0.00000
  90       14F-2        0.30096   0.00000   0.00000   0.00000   0.00000
  91       14F+3        0.00000   0.00000   0.65493   0.00000   0.00000
  92       14F-3        0.00000   0.00000   0.00000   0.65372  -0.04254
                          41        42        43        44        45
                           V         V         V         V         V
     Eigenvalues --     1.67245   1.91611   1.91716   1.93703   1.96792
   1 1   O  1S          0.00000   0.00000   0.00471  -0.02416   0.00000
   2        2S          0.00000   0.00000  -0.06423  -0.29734   0.00000
   3        3S          0.00000   0.00000  -0.03145  -0.13983   0.00000
   4        4S          0.00000   0.00000   0.98145  -0.56027   0.00000
   5        5S          0.00000   0.00000   0.58419   0.29151   0.00000
   6        6PX         0.08800   0.00000   0.00000   0.00000   0.00000
   7        6PY         0.00000   0.00000   0.00000   0.00000   0.00000
   8        6PZ         0.00000   0.00000   0.00826  -0.00519   0.00000
   9        7PX         0.04863   0.00000   0.00000   0.00000   0.00000
  10        7PY         0.00000   0.00000   0.00000   0.00000   0.00000
  11        7PZ         0.00000   0.00000  -0.03325  -0.00236   0.00000
  12        8PX        -0.20943   0.00000   0.00000   0.00000   0.00000
  13        8PY         0.00000   0.00000   0.00000   0.00000   0.00000
  14        8PZ         0.00000   0.00000  -0.58160  -0.64276   0.00000
  15        9PX         0.05332   0.00000   0.00000   0.00000   0.00000
  16        9PY         0.00000   0.00000   0.00000   0.00000   0.00000
  17        9PZ         0.00000   0.00000  -0.11442  -0.48574   0.00000
  18       10D 0        0.00000   0.00000  -0.00157  -0.03473   0.00000
  19       10D+1        0.02827   0.00000   0.00000   0.00000   0.00000
  20       10D-1        0.00000   0.00000   0.00000   0.00000   0.00000
  21       10D+2        0.00000   0.00000  -0.01983   0.00002   0.00000
  22       10D-2        0.00000  -0.02018   0.00000   0.00000  -0.00018
  23       11D 0        0.00000   0.00000  -0.00786  -0.61361   0.00000
  24       11D+1        0.77196   0.00000   0.00000   0.00000   0.00000
  25       11D-1        0.00000   0.00000   0.00000   0.00000   0.00000
  26       11D+2        0.00000   0.00000  -0.72225  -0.18766   0.00000
  27       11D-2        0.00000  -0.72414   0.00000   0.00000   0.57570
  28       12D 0        0.00000   0.00000   0.17109   0.98570   0.00000
  29       12D+1       -0.64839   0.00000   0.00000   0.00000   0.00000
  30       12D-1        0.00000   0.00000   0.00000   0.00000   0.00000
  31       12D+2        0.00000   0.00000   0.93692   0.05988   0.00000
  32       12D-2        0.00000   0.93896   0.00000   0.00000  -0.19218
  33       13F 0        0.00000   0.00000   0.00113   0.04164   0.00000
  34       13F+1       -0.01726   0.00000   0.00000   0.00000   0.00000
  35       13F-1        0.00000   0.00000   0.00000   0.00000   0.00000
  36       13F+2        0.00000   0.00000   0.04876   0.02489   0.00000
  37       13F-2        0.00000   0.04882   0.00000   0.00000  -0.07199
  38       13F+3        0.00149   0.00000   0.00000   0.00000   0.00000
  39       13F-3        0.00000   0.00000   0.00000   0.00000   0.00000
[...]
   XX=             -0.7434   YY=              1.0906   ZZ=             -0.3472
   XY=              0.0000   XZ=              0.0000   YZ=              0.0000
 Octapole moment (field-independent basis, Debye-Ang**2):
  XXX=             -0.0000  YYY=             -0.0000  ZZZ=             -0.0000  XYY=             -0.0000
  XXY=             -0.0000  XXZ=              0.0000  XZZ=             -0.0000  YZZ=             -0.0000
  YYZ=              0.0000  XYZ=              0.0000
 Hexadecapole moment (field-independent basis, Debye-Ang**3):
 XXXX=             -9.1507 YYYY=             -6.6888 ZZZZ=            -29.8435 XXXY=              0.0000
 XXXZ=              0.0000 YYYX=              0.0000 YYYZ=              0.0000 ZZZX=              0.0000
 ZZZY=              0.0000 XXYY=             -2.6438 XXZZ=             -7.5781 YYZZ=             -5.8033
 XXYZ=              0.0000 YYXZ=              0.0000 ZZXY=              0.0000
 N-N= 2.810040657206D+01 E-N=-4.113183688749D+02  KE= 1.494932185363D+02
 Symmetry AG   KE= 6.943622622885D+01
 Symmetry B1G  KE= 1.054803317925D-33
 Symmetry B2G  KE= 5.971513098429D+00
 Symmetry B3G  KE= 9.984066385287D-19
 Symmetry AU   KE= 2.023219413659D-32
 Symmetry B1U  KE= 6.488890893301D+01
 Symmetry B2U  KE= 4.539428604595D+00
 Symmetry B3U  KE= 4.657141671398D+00
 There are a total of       46228 grid points.
 ElSum from          density=       15.9999999112
 ElSum from atomic densities=       15.9999999228

 Hirshfeld populations at iteration   1 (CX, CA, CB, DipXYZ):
               1          2          3          4          5          6
     1  O    0.000018   4.000000   4.000000   0.000000   0.000000  -0.104530
     2  O    0.000018   4.000000   4.000000   0.000000   0.000000   0.104530
       Tot   0.000035   8.000000   8.000000   0.000000   0.000000   0.000000

 Dip from Atomic Chgs              0.000000   0.000000   0.000000
         Total Dipole              0.000000   0.000000   0.000000

 Hirshfeld charges, spin densities, dipoles, and CM5 charges using IRadAn=      5:
              Q-H        S-H        Dx         Dy         Dz        Q-CM5   
     1  O    0.000000   0.000000   0.000000   0.000000  -0.104530   0.000000
     2  O    0.000000   0.000000   0.000000   0.000000   0.104530   0.000000
       Tot   0.000000   0.000000   0.000000   0.000000   0.000000   0.000000
 Hirshfeld charges with hydrogens summed into heavy atoms:
              Q-H       Q-CM5   
     1  O    0.000000   0.000000
     2  O    0.000000   0.000000
 
 EQQ= 0.000000000000E+00 EQD= 0.000000000000E+00 EDD=-0.924866173605E-03
 EQQ+QD+DD=-0.924866173605E-03
 
 Orbital energies and kinetic energies (alpha):
                                 1                 2
   1 (SGG)--O                -19.296341         29.028282
   2 (SGU)--O                -19.296055         29.022302
   3 (SGG)--O                 -1.297337          2.958426
   4 (SGU)--O                 -0.810647          3.422153
   5 (SGG)--O                 -0.549153          2.731406
   6 (PIU)--O                 -0.533384          2.269714
   7 (PIU)--O                 -0.527916          2.328571
   8 (PIG)--O                 -0.264687          2.985757
   9 (PIG)--V                 -0.191983          2.889163
  10 (SGU)--V                  0.048352          0.388262
  11 (SGG)--V                  0.059673          0.500968
  12 (PIU)--V                  0.083708          0.333669
  13 (PIU)--V                  0.087849          0.327836
  14 (SGG)--V                  0.135786          0.272999
  15 (PIG)--V                  0.144924          0.354386
  16 (PIG)--V                  0.147381          0.379016
  17 (SGU)--V                  0.210780          2.733526
  18 (SGU)--V                  0.296698          1.771932
  19 V                         0.421846          0.695853
  20 V                         0.421894          0.697369
  21 V                         0.533596          0.994867
  22 (PIU)--V                  0.601374          0.912932
  23 (PIU)--V                  0.611788          0.923915
  24 V                         0.651688          0.891464
  25 V                         0.651715          0.873314
  26 (PIG)--V                  0.660553          1.459598
  27 (PIG)--V                  0.664830          1.429776
  28 (PIU)--V                  0.687664          2.031597
  29 V                         0.690589          1.683633
  30 (PIU)--V                  0.705238          2.004804
  31 (SGG)--V                  0.788794          2.162086
  32 (SGU)--V                  0.812926          2.008482
  33 (PIG)--V                  0.984711          1.600406
  34 (PIG)--V                  0.995360          1.594112
  35 V                         1.332881          2.429583
  36 V                         1.598707          2.388129
  37 V                         1.600476          2.387142
  38 V                         1.632609          2.180078
  39 V                         1.632976          2.028044
  40 V                         1.634879          2.652068
  41 V                         1.660514          2.797861
  42 V                         1.915284          2.801386
  43 V                         1.916483          2.736052
  44 V                         1.917451          2.744140
  45 V                         1.951515          2.507746
  46 V                         1.956335          2.537154
  47 V                         2.016428          2.398674
  48 V                         2.016442          2.399999
  49 V                         2.054288          2.687888
  50 V                         2.071463          2.685861
  51 V                         2.077390          3.746954
  52 (SGU)--V                  2.366638          4.421158
  53 (PIU)--V                  2.417117          3.100209
  54 (PIU)--V                  2.436233          3.107673
  55 V                         2.567883          3.251692
  56 V                         2.573495          3.109394
  57 V                         2.609044          3.836551
  58 (PIG)--V                  2.765279          4.760839
  59 (PIG)--V                  2.787346          4.756894
  60 (SGG)--V                  3.160612          6.371600
  61 (PIU)--V                  3.614488          9.159850
  62 (PIU)--V                  3.636932          9.121866
  63 (SGG)--V                  3.876118          9.953070
  64 (PIG)--V                  4.442456          9.134201
  65 (PIG)--V                  4.469712          9.107905
  66 (PIU)--V                  5.480687          7.148010
  67 (PIU)--V                  5.512297          7.149267
  68 V                         5.545776          7.940438
  69 V                         5.639209          7.108673
  70 V                         5.643867          7.137962
  71 V                         5.719110          8.999581
  72 (PHIU)--V                 5.863790          7.318351
  73 (PHIU)--V                 5.864045          7.318394
  74 (PHIG)--V                 6.053517          7.525709
  75 (PHIG)--V                 6.053849          7.525711
  76 V                         6.298694         10.813751
  77 (DLTG)--V                 6.366150          9.542101
  78 (DLTG)--V                 6.370161          9.542761
  79 V                         6.473475          8.131344
  80 V                         6.475932          8.126524
  81 V                         6.526913          9.568329
  82 V                         6.531409          9.582189
  83 (PIU)--V                  6.648105          9.736415
  84 (PIU)--V                  6.676186          9.734750
  85 (PIG)--V                  6.931805         10.198264
  86 (PIG)--V                  6.957522         10.195880
  87 (PIG)--V                  7.272129          9.076777
  88 (PIG)--V                  7.305627          9.076909
  89 (SGG)--V                  7.429315         11.545894
  90 (SGU)--V                  7.754293         12.781830
  91 (SGG)--V                 11.956721         33.907925
  92 (SGU)--V                 13.614290         37.903244
 Total kinetic energy from orbitals= 1.494932185363D+02
  Exact polarizability:   8.541  -0.000   7.798  -0.000   0.000  14.498
 Approx polarizability:   9.590  -0.000  10.427  -0.000  -0.000  26.736
 No NMR shielding tensors so no spin-rotation constants.
 Leave Link  601 at Fri Sep  6 10:02:35 2024, MaxMem=   104857600 cpu:               0.3 elap:               0.3
 (Enter /Users/asuyarger/Applications/G16/g16/l701.exe)
 ... and contract with generalized density number  0.
 Compute integral second derivatives.
 Leave Link  701 at Fri Sep  6 10:02:35 2024, MaxMem=   104857600 cpu:               0.1 elap:               0.1
 (Enter /Users/asuyarger/Applications/G16/g16/l702.exe)
 L702 exits ... SP integral derivatives will be done elsewhere.
 Leave Link  702 at Fri Sep  6 10:02:36 2024, MaxMem=   104857600 cpu:               0.0 elap:               0.0
 (Enter /Users/asuyarger/Applications/G16/g16/l703.exe)
 Integral derivatives from FoFJK, PRISM(SPDF).
 Compute integral second derivatives, UseDBF=F ICtDFT=           0.
 Calling FoFJK, ICntrl=    100127 FMM=F ISym2X=1 I1Cent= 0 IOpClX= 0 NMat=1 NMatS=1 NMatT=0.
 FoFJK:  IHMeth= 1 ICntrl=  100127 DoSepK=F KAlg= 0 I1Cent=           0 FoldK=F
 IRaf=         0 NMat=       1 IRICut=       1 DoRegI=T DoRafI=F ISym2E= 1 IDoP0=0 IntGTp=1.
 FoFCou: FMM=F IPFlag=           0 FMFlag=      100000 FMFlg1=         800
         NFxFlg=           0 DoJE=F BraDBF=F KetDBF=F FulRan=T
         wScrn=  0.000000 ICntrl=    100127 IOpCl=  0 I1Cent=           0 NGrid=           0
         NMat0=    1 NMatS0=      1 NMatT0=    0 NMatD0=    1 NMtDS0=    0 NMtDT0=    0
 Petite list used in FoFCou.
 Leave Link  703 at Fri Sep  6 10:02:38 2024, MaxMem=   104857600 cpu:               2.7 elap:               2.7
 (Enter /Users/asuyarger/Applications/G16/g16/l716.exe)
 Dipole        = 3.94430453D-31-3.08148791D-33 0.00000000D+00
 Polarizability= 8.54139836D+00-1.45795021D-18 7.79782216D+00
                -5.12226744D-16 3.01270709D-32 1.44984253D+01
 HyperPolar    =-1.04321312D-11 2.37285906D-11 1.64767780D-11
                 2.36064118D-11 2.66960529D-12 3.06849886D-13
                 1.52544104D-11-2.14859993D-11-1.01060533D-11
                 2.94947479D-11
 Full mass-weighted force constant matrix:
 Low frequencies ---    0.0005    0.0006    0.0012   10.9030   11.0364 1614.0068
 Diagonal vibrational polarizability:
        0.0000000       0.0000000       0.0000000
 Diagonal vibrational hyperpolarizability:
       -0.0000000      -0.0000000       0.0000000
 Harmonic frequencies (cm**-1), IR intensities (KM/Mole), Raman scattering
 activities (A**4/AMU), depolarization ratios for plane and unpolarized
 incident light, reduced masses (AMU), force constants (mDyne/A),
 and normal coordinates:
                      1
                     SGG
 Frequencies --   1614.0068
 Red. masses --     15.9949
 Frc consts  --     24.5495
 IR Inten    --      0.0000
 Raman Activ --      9.8225
 Depolar (P) --      0.1956
 Depolar (U) --      0.3272
  Atom  AN      X      Y      Z
     1   8    -0.00   0.00   0.71
     2   8     0.00   0.00  -0.71

 -------------------
 - Thermochemistry -
 -------------------
 Temperature   298.150 Kelvin.  Pressure   1.00000 Atm.
 Atom     1 has atomic number  8 and mass  15.99491
 Atom     2 has atomic number  8 and mass  15.99491
 Molecular mass:    31.98983 amu.
 Principal axes and moments of inertia in atomic units:
                           1         2         3
     Eigenvalues --     0.00000  41.48458  41.48458
           X           -0.00000   1.00000  -0.00000
           Y            0.00000   0.00000   1.00000
           Z            1.00000   0.00000  -0.00000
 This molecule is a prolate symmetric top.
 Rotational symmetry number  2.
 Rotational temperature (Kelvin)      2.08786
 Rotational constant (GHZ):          43.503907
 Zero-point vibrational energy       9653.9 (Joules/Mol)
                                    2.30734 (Kcal/Mol)
 Vibrational temperatures:   2322.20
          (Kelvin)
 
 Zero-point correction=                           0.003677 (Hartree/Particle)
 Thermal correction to Energy=                    0.006040
 Thermal correction to Enthalpy=                  0.006985
 Thermal correction to Gibbs Free Energy=        -0.015250
 Sum of electronic and zero-point Energies=           -150.319684
 Sum of electronic and thermal Energies=              -150.317320
 Sum of electronic and thermal Enthalpies=            -150.316376
 Sum of electronic and thermal Free Energies=         -150.338611
 
                     E (Thermal)             CV                S
                      KCal/Mol        Cal/Mol-Kelvin    Cal/Mol-Kelvin
 Total                    3.790              5.018             46.797
 Electronic               0.000              0.000              0.000
 Translational            0.889              2.981             36.321
 Rotational               0.592              1.987             10.469
 Vibrational              2.309              0.050              0.007
                       Q            Log10(Q)             Ln(Q)
 Total Bot       0.103410D+08          7.014565         16.151632
 Total V=0       0.507990D+09          8.705856         20.045973
 Vib (Bot)       0.203652D-01         -1.691111         -3.893927
 Vib (V=0)       0.100041D+01          0.000180          0.000414
 Electronic      0.100000D+01          0.000000          0.000000
 Translational   0.711167D+07          6.851972         15.777248
 Rotational      0.714009D+02          1.853704          4.268311
 ***** Axes restored to original set *****
 -------------------------------------------------------------------
 Center     Atomic                   Forces (Hartrees/Bohr)
 Number     Number              X              Y              Z
 -------------------------------------------------------------------
      1        8          -0.000083192    0.000000000   -0.000000000
      2        8           0.000083192   -0.000000000    0.000000000
 -------------------------------------------------------------------
 Cartesian Forces:  Max     0.000083192 RMS     0.000048031
 Force constants in Cartesian coordinates: 
                1             2             3             4             5 
      1  0.788414D+00
      2  0.000000D+00  0.359781D-04
      3  0.000000D+00  0.000000D+00  0.368637D-04
      4 -0.788414D+00  0.000000D+00  0.000000D+00  0.788414D+00
      5  0.000000D+00 -0.359781D-04  0.000000D+00  0.000000D+00  0.359781D-04
      6  0.000000D+00  0.000000D+00 -0.368637D-04  0.000000D+00  0.000000D+00
                6 
      6  0.368637D-04
 FormGI is forming the generalized inverse of G from B-inverse, IUseBI=4.
 Force constants in internal coordinates: 
                1 
      1  0.788414D+00
 Leave Link  716 at Fri Sep  6 10:02:38 2024, MaxMem=   104857600 cpu:               0.0 elap:               0.0
 (Enter /Users/asuyarger/Applications/G16/g16/l103.exe)

 GradGradGradGradGradGradGradGradGradGradGradGradGradGradGradGradGradGrad
 Berny optimization.
 Red2BG is reusing G-inverse.
 Internal  Forces:  Max     0.000083192 RMS     0.000083192
 Search for a local minimum.
 Step number   1 out of a maximum of    2
 All quantities printed in internal units (Hartrees-Bohrs-Radians)
 Second derivative matrix not updated -- analytic derivatives used.
 The second derivative matrix:
                          R1
           R1           0.78841
 ITU=  0
     Eigenvalues ---    0.78841
 Angle between quadratic step and forces=   0.00 degrees.
 Linear search not attempted -- first point.
 Iteration  1 RMS(Cart)=  0.00007461 RMS(Int)=  0.00000000
 Iteration  2 RMS(Cart)=  0.00000000 RMS(Int)=  0.00000000
 ITry= 1 IFail=0 DXMaxC= 5.28D-05 DCOld= 1.00D+10 DXMaxT= 3.00D-01 DXLimC= 3.00D+00 Rises=F
 ClnCor:  largest displacement from symmetrization is 0.00D+00 for atom     0.
 Variable       Old X    -DE/DX   Delta X   Delta X   Delta X     New X
                                 (Linear)    (Quad)   (Total)
    R1        2.27755  -0.00008   0.00000  -0.00011  -0.00011   2.27744
         Item               Value     Threshold  Converged?
 Maximum Force            0.000083     0.000450     YES
 RMS     Force            0.000083     0.000300     YES
 Maximum Displacement     0.000053     0.001800     YES
 RMS     Displacement     0.000075     0.001200     YES
 Predicted change in Energy=-4.389101D-09
 Optimization completed.
    -- Stationary point found.
                           ----------------------------
                           !   Optimized Parameters   !
                           ! (Angstroms and Degrees)  !
 --------------------------                            --------------------------
 ! Name  Definition              Value          Derivative Info.                !
 --------------------------------------------------------------------------------
 ! R1    R(1,2)                  1.2052         -DE/DX =   -0.0001              !
 --------------------------------------------------------------------------------
 GradGradGradGradGradGradGradGradGradGradGradGradGradGradGradGradGradGrad

 Leave Link  103 at Fri Sep  6 10:02:38 2024, MaxMem=   104857600 cpu:               0.0 elap:               0.0
 (Enter /Users/asuyarger/Applications/G16/g16/l9999.exe)
 Dipole is zero, so no output in dipole orientation.

 ----------------------------------------------------------------------

 Electric dipole moment (input orientation):
 (Debye = 10**-18 statcoulomb cm , SI units = C m)
                  (au)            (Debye)         (10**-30 SI)
   Tot        0.000000D+00      0.000000D+00      0.000000D+00
   x          0.000000D+00      0.000000D+00      0.000000D+00
   y          0.000000D+00      0.000000D+00      0.000000D+00
   z          0.000000D+00      0.000000D+00      0.000000D+00

 Dipole polarizability, Alpha (input orientation).
 (esu units = cm**3 , SI units = C**2 m**2 J**-1)
 Alpha(0;0):
               (au)            (10**-24 esu)      (10**-40 SI)
   iso        0.102792D+02      0.152322D+01      0.169481D+01
   aniso      0.636149D+01      0.942676D+00      0.104887D+01
   xx         0.144984D+02      0.214844D+01      0.239047D+01
   yx         0.000000D+00      0.000000D+00      0.000000D+00
   yy         0.779782D+01      0.115552D+01      0.128569D+01
   zx         0.000000D+00      0.000000D+00      0.000000D+00
   zy         0.000000D+00      0.000000D+00      0.000000D+00
   zz         0.854140D+01      0.126570D+01      0.140829D+01

 ----------------------------------------------------------------------
 1\1\GINC-JEFFSMACSTUDIO\Freq\RB3LYP\Aug-CC-pVTZ\O2\ROOT\06-Sep-2024\0\
 \#P Geom=AllCheck Guess=TCheck SCRF=Check GenChk RB3LYP/Aug-CC-pVTZ Fr
 eq\\O2 DFT B3LPY aug-cc-pVTZ Opt Freq - Full\\0,1\O,1.5734041358,-0.69
 786534,-0.02031144\O,0.3681781042,-0.69786534,-0.02031144\\Version=EM6
 4M-G16RevA.03\HF=-150.3233606\RMSD=0.000e+00\RMSF=4.803e-05\ZeroPoint=
 0.003677\Thermal=0.0060405\Dipole=0.,0.,0.\DipoleDeriv=0.,0.,0.,0.,0.,
 0.,0.,0.,0.,0.,0.,0.,0.,0.,0.,0.,0.,0.\Polar=14.4984253,0.,7.7978222,0
 .,0.,8.5413984\PolarDeriv=8.513592,0.,2.258306,0.,0.,0.3584114,0.,2.94
 20754,0.,0.,0.,0.,0.,0.,0.,2.6143405,0.,0.,-8.513592,0.,-2.258306,0.,0
 .,-0.3584114,0.,-2.9420754,0.,0.,0.,0.,0.,0.,0.,-2.6143405,0.,0.\Hyper
 Polar=0.,0.,0.,0.,0.,0.,0.,0.,0.,0.\Quadrupole=-0.2581566,0.8108525,-0
 .552696,0.,0.,0.\PG=D*H [C*(O1.O1)]\NImag=0\\0.78841362,0.,0.00003598,
 0.,0.,0.00003686,-0.78841362,0.,0.,0.78841362,0.,-0.00003598,0.,0.,0.0
 0003598,0.,0.,-0.00003686,0.,0.,0.00003686\\0.00008319,0.,0.,-0.000083
 19,0.,0.\\\@


 THOSE WITH THE GOLD MAKE THE RULES.

             -- PETER'S GOLDEN RULE
 Job cpu time:       0 days  0 hours  0 minutes 11.3 seconds.
 Elapsed time:       0 days  0 hours  0 minutes 11.1 seconds.
 File lengths (MBytes):  RWF=     10 Int=      0 D2E=      0 Chk=      2 Scr=      1
 Normal termination of Gaussian 16 at Fri Sep  6 10:02:38 2024.
