 Entering Gaussian System, Link 0=g16
 Input=/Users/asuyarger/Downloads/O2_DFT_WB97XD_6311pp2d3p_Opt_Freq_Full.gjf
 Output=/Users/asuyarger/Downloads/O2_DFT_WB97XD_6311pp2d3p_Opt_Freq_Full.log
 Initial command:
 /Users/asuyarger/Applications/G16/g16/l1.exe "/Users/asuyarger/Applications/G16/scratch/Gau-88535.inp" -scrdir="/Users/asuyarger/Applications/G16/scratch/"
 Entering Link 1 = /Users/asuyarger/Applications/G16/g16/l1.exe PID=     88536.
  
 Copyright (c) 1988,1990,1992,1993,1995,1998,2003,2009,2016,
            Gaussian, Inc.  All Rights Reserved.
  
 This is part of the Gaussian(R) 16 program.  It is based on
 the Gaussian(R) 09 system (copyright 2009, Gaussian, Inc.),
 the Gaussian(R) 03 system (copyright 2003, Gaussian, Inc.),
 the Gaussian(R) 98 system (copyright 1998, Gaussian, Inc.),
 the Gaussian(R) 94 system (copyright 1995, Gaussian, Inc.),
 the Gaussian 92(TM) system (copyright 1992, Gaussian, Inc.),
 the Gaussian 90(TM) system (copyright 1990, Gaussian, Inc.),
 the Gaussian 88(TM) system (copyright 1988, Gaussian, Inc.),
 the Gaussian 86(TM) system (copyright 1986, Carnegie Mellon
 University), and the Gaussian 82(TM) system (copyright 1983,
 Carnegie Mellon University). Gaussian is a federally registered
 trademark of Gaussian, Inc.
  
 This software contains proprietary and confidential information,
 including trade secrets, belonging to Gaussian, Inc.
  
 This software is provided under written license and may be
 used, copied, transmitted, or stored only in accord with that
 written license.
  
 The following legend is applicable only to US Government
 contracts under FAR:
  
                    RESTRICTED RIGHTS LEGEND
  
 Use, reproduction and disclosure by the US Government is
 subject to restrictions as set forth in subparagraphs (a)
 and (c) of the Commercial Computer Software - Restricted
 Rights clause in FAR 52.227-19.
  
 Gaussian, Inc.
 340 Quinnipiac St., Bldg. 40, Wallingford CT 06492
  
  
 ---------------------------------------------------------------
 Warning -- This program may not be used in any manner that
 competes with the business of Gaussian, Inc. or will provide
 assistance to any competitor of Gaussian, Inc.  The licensee
 of this program is prohibited from giving any competitor of
 Gaussian, Inc. access to this program.  By using this program,
 the user acknowledges that Gaussian, Inc. is engaged in the
 business of creating and licensing software in the field of
 computational chemistry and represents and warrants to the
 licensee that it is not a competitor of Gaussian, Inc. and that
 it will not use this program in any manner prohibited above.
 ---------------------------------------------------------------
  

 Cite this work as:
 Gaussian 16, Revision A.03,
 M. J. Frisch, G. W. Trucks, H. B. Schlegel, G. E. Scuseria, 
 M. A. Robb, J. R. Cheeseman, G. Scalmani, V. Barone, 
 G. A. Petersson, H. Nakatsuji, X. Li, M. Caricato, A. V. Marenich, 
 J. Bloino, B. G. Janesko, R. Gomperts, B. Mennucci, H. P. Hratchian, 
 J. V. Ortiz, A. F. Izmaylov, J. L. Sonnenberg, D. Williams-Young, 
 F. Ding, F. Lipparini, F. Egidi, J. Goings, B. Peng, A. Petrone, 
 T. Henderson, D. Ranasinghe, V. G. Zakrzewski, J. Gao, N. Rega, 
 G. Zheng, W. Liang, M. Hada, M. Ehara, K. Toyota, R. Fukuda, 
 J. Hasegawa, M. Ishida, T. Nakajima, Y. Honda, O. Kitao, H. Nakai, 
 T. Vreven, K. Throssell, J. A. Montgomery, Jr., J. E. Peralta, 
 F. Ogliaro, M. J. Bearpark, J. J. Heyd, E. N. Brothers, K. N. Kudin, 
 V. N. Staroverov, T. A. Keith, R. Kobayashi, J. Normand, 
 K. Raghavachari, A. P. Rendell, J. C. Burant, S. S. Iyengar, 
 J. Tomasi, M. Cossi, J. M. Millam, M. Klene, C. Adamo, R. Cammi, 
 J. W. Ochterski, R. L. Martin, K. Morokuma, O. Farkas, 
 J. B. Foresman, and D. J. Fox, Gaussian, Inc., Wallingford CT, 2016.
 
 ******************************************
 Gaussian 16:  EM64M-G16RevA.03 25-Dec-2016
                 6-Sep-2024 
 ******************************************
 %chk=O2_DFT_WB97XD_6311pp2d3p_Opt_Freq_Full.chk
 ----------------------------------------------------------------------
 #p opt freq=raman wb97xd/6-311++g(2d,3p) guess=save pop=(hirshfeld,ful
 l) geom=connectivity polar
 ----------------------------------------------------------------------
 1/18=20,19=15,26=3,38=1,57=2/1,3;
 2/9=110,12=2,17=6,18=5,40=1/2;
 3/5=4,6=6,7=1512,11=2,25=1,30=1,71=1,74=-58/1,2,3;
 4//1;
 5/5=2,38=5,98=1/2;
 6/7=3,28=1,79=1/1;
 7//1,2,3,16;
 1/18=20,19=15,26=3/3(2);
 2/9=110/2;
 99//99;
 2/9=110/2;
 3/5=4,6=6,7=1512,11=2,25=1,30=1,71=1,74=-58/1,2,3;
 4/5=5,16=3,69=1/1;
 5/5=2,38=5,98=1/2;
 7//1,2,3,16;
 1/18=20,19=15,26=3/3(-5);
 2/9=110/2;
 6/7=3,19=2,28=1,79=1/1;
 99/9=1/99;
 Leave Link    1 at Fri Sep  6 10:00:35 2024, MaxMem=           0 cpu:               0.0 elap:               0.0
 (Enter /Users/asuyarger/Applications/G16/g16/l101.exe)
 ---------------------------------------------
 O2 DFT WB97XD 6-311++g(2d,3p) Opt Freq - Full
 ---------------------------------------------
 Symbolic Z-matrix:
 Charge =  0 Multiplicity = 1
 O                     1.55159  -0.69787  -0.02031 
 O                     0.38999  -0.69787  -0.02031 
 
 ITRead=  0  0
 MicOpt= -1 -1
 NAtoms=      2 NQM=        2 NQMF=       0 NMMI=      0 NMMIF=      0
                NMic=       0 NMicF=      0.
                    Isotopes and Nuclear Properties:
 (Nuclear quadrupole moments (NQMom) in fm**2, nuclear magnetic moments (NMagM)
  in nuclear magnetons)

  Atom         1           2
 IAtWgt=          16          16
 AtmWgt=  15.9949146  15.9949146
 NucSpn=           0           0
 AtZEff=  -0.0000000  -0.0000000
 NQMom=    0.0000000   0.0000000
 NMagM=    0.0000000   0.0000000
 AtZNuc=   8.0000000   8.0000000
 Leave Link  101 at Fri Sep  6 10:00:35 2024, MaxMem=   104857600 cpu:               0.1 elap:               0.1
 (Enter /Users/asuyarger/Applications/G16/g16/l103.exe)

 GradGradGradGradGradGradGradGradGradGradGradGradGradGradGradGradGradGrad
 Berny optimization.
 Initialization pass.
                           ----------------------------
                           !    Initial Parameters    !
                           ! (Angstroms and Degrees)  !
 --------------------------                            --------------------------
 ! Name  Definition              Value          Derivative Info.                !
 --------------------------------------------------------------------------------
 ! R1    R(1,2)                  1.1616         estimate D2E/DX2                !
 --------------------------------------------------------------------------------
 Trust Radius=3.00D-01 FncErr=1.00D-07 GrdErr=1.00D-06 EigMax=2.50D+02 EigMin=1.00D-04
 Number of steps in this run=     20 maximum allowed number of steps=    100.
 GradGradGradGradGradGradGradGradGradGradGradGradGradGradGradGradGradGrad

 Leave Link  103 at Fri Sep  6 10:00:35 2024, MaxMem=   104857600 cpu:               0.0 elap:               0.0
 (Enter /Users/asuyarger/Applications/G16/g16/l202.exe)
                          Input orientation:                          
 ---------------------------------------------------------------------
 Center     Atomic      Atomic             Coordinates (Angstroms)
 Number     Number       Type             X           Y           Z
 ---------------------------------------------------------------------
      1          8           0        1.551591   -0.697865   -0.020311
      2          8           0        0.389991   -0.697865   -0.020311
 ---------------------------------------------------------------------
 Stoichiometry    O2
 Framework group  D*H[C*(O.O)]
 Deg. of freedom     1
 Full point group                 D*H     NOp   8
 Largest Abelian subgroup         D2H     NOp   8
 Largest concise Abelian subgroup C2      NOp   2
                         Standard orientation:                         
 ---------------------------------------------------------------------
 Center     Atomic      Atomic             Coordinates (Angstroms)
 Number     Number       Type             X           Y           Z
 ---------------------------------------------------------------------
      1          8           0        0.000000    0.000000    0.580800
      2          8           0        0.000000    0.000000   -0.580800
 ---------------------------------------------------------------------
 Rotational constants (GHZ):           0.0000000          46.8330090          46.8330090
 Leave Link  202 at Fri Sep  6 10:00:35 2024, MaxMem=   104857600 cpu:               0.0 elap:               0.0
 (Enter /Users/asuyarger/Applications/G16/g16/l301.exe)
 Standard basis: 6-311++G(2d,3p) (5D, 7F)
 Ernie: Thresh=  0.10000D-02 Tol=  0.10000D-05 Strict=F.
 There are    15 symmetry adapted cartesian basis functions of AG  symmetry.
 There are     2 symmetry adapted cartesian basis functions of B1G symmetry.
 There are     6 symmetry adapted cartesian basis functions of B2G symmetry.
 There are     6 symmetry adapted cartesian basis functions of B3G symmetry.
 There are     2 symmetry adapted cartesian basis functions of AU  symmetry.
 There are    15 symmetry adapted cartesian basis functions of B1U symmetry.
 There are     6 symmetry adapted cartesian basis functions of B2U symmetry.
 There are     6 symmetry adapted cartesian basis functions of B3U symmetry.
 There are    13 symmetry adapted basis functions of AG  symmetry.
 There are     2 symmetry adapted basis functions of B1G symmetry.
 There are     6 symmetry adapted basis functions of B2G symmetry.
 There are     6 symmetry adapted basis functions of B3G symmetry.
 There are     2 symmetry adapted basis functions of AU  symmetry.
 There are    13 symmetry adapted basis functions of B1U symmetry.
 There are     6 symmetry adapted basis functions of B2U symmetry.
 There are     6 symmetry adapted basis functions of B3U symmetry.
    54 basis functions,    84 primitive gaussians,    58 cartesian basis functions
     8 alpha electrons        8 beta electrons
       nuclear repulsion energy        29.1557691967 Hartrees.
 IExCor= 4639 DFT=T Ex+Corr=wB97XD ExCW=0 ScaHFX=  1.000000
 ScaDFX=  1.000000  1.000000  1.000000  1.000000 ScalE2=  1.000000  1.000000
 IRadAn=      5 IRanWt=     -1 IRanGd=            0 ICorTp=0 IEmpDi=121
 HFx  wShort=  0.000000 wLong=  0.200000 cFull=  0.222036 cShort=  0.000000 cLong=  0.777964
 DFx  wShort=  0.000000 wLong=  0.200000 cFull=  0.000000 cShort=  0.000000 cLong=  1.000000
 NAtoms=    2 NActive=    2 NUniq=    1 SFac= 4.00D+00 NAtFMM=   60 NAOKFM=F Big=F
 Integral buffers will be    131072 words long.
 Raffenetti 2 integral format.
 Two-electron integral symmetry is turned on.
 R6Disp:  Grimme-D2 Dispersion energy=       -0.0000007811 Hartrees.
 Nuclear repulsion after empirical dispersion term =       29.1557684156 Hartrees.
 Leave Link  301 at Fri Sep  6 10:00:35 2024, MaxMem=   104857600 cpu:               0.0 elap:               0.0
 (Enter /Users/asuyarger/Applications/G16/g16/l302.exe)
 NPDir=0 NMtPBC=     1 NCelOv=     1 NCel=       1 NClECP=     1 NCelD=      1
         NCelK=      1 NCelE2=     1 NClLst=     1 CellRange=     0.0.
 One-electron integrals computed using PRISM.
 One-electron integral symmetry used in STVInt
 NBasis=    54 RedAO= T EigKep=  5.98D-04  NBF=    13     2     6     6     2    13     6     6
 NBsUse=    54 1.00D-06 EigRej= -1.00D+00 NBFU=    13     2     6     6     2    13     6     6
 Precomputing XC quadrature grid using
 IXCGrd= 4 IRadAn=           5 IRanWt=          -1 IRanGd=           0 AccXCQ= 0.00D+00.
 Generated NRdTot=       0 NPtTot=           0 NUsed=           0 NTot=          32
 NSgBfM=    58    58    58    58    58 MxSgAt=     2 MxSgA2=     2.
 Leave Link  302 at Fri Sep  6 10:00:35 2024, MaxMem=   104857600 cpu:               0.1 elap:               0.1
 (Enter /Users/asuyarger/Applications/G16/g16/l303.exe)
 DipDrv:  MaxL=1.
 Leave Link  303 at Fri Sep  6 10:00:35 2024, MaxMem=   104857600 cpu:               0.0 elap:               0.0
 (Enter /Users/asuyarger/Applications/G16/g16/l401.exe)
 ExpMin= 8.45D-02 ExpMax= 8.59D+03 ExpMxC= 1.30D+03 IAcc=3 IRadAn=         5 AccDes= 0.00D+00
 Harris functional with IExCor= 4639 and IRadAn=       5 diagonalized for initial guess.
 HarFok:  IExCor= 4639 AccDes= 0.00D+00 IRadAn=         5 IDoV= 1 UseB2=F ITyADJ=14
 ICtDFT=  3500011 ScaDFX=  1.000000  1.000000  1.000000  1.000000
 FoFCou: FMM=F IPFlag=           0 FMFlag=      100000 FMFlg1=           0
         NFxFlg=           0 DoJE=T BraDBF=F KetDBF=T FulRan=T
         wScrn=  0.000000 ICntrl=       500 IOpCl=  0 I1Cent=   200000004 NGrid=           0
         NMat0=    1 NMatS0=      1 NMatT0=    0 NMatD0=    1 NMtDS0=    0 NMtDT0=    0
 Petite list used in FoFCou.
 Harris En= -145.335609872301    
 JPrj=0 DoOrth=F DoCkMO=F.
 Initial guess orbital symmetries:
       Occupied  (SGU) (SGG) (SGG) (SGU) (SGG) (PIU) (PIU) (PIG)
       Virtual   (PIG) (SGU) (SGG) (PIU) (PIU) (SGG) (PIG) (PIG)
                 (SGU) (SGU) (SGU) (SGG) (PIU) (PIU) (PIG) (PIG)
                 (SGG) (DLTG) (DLTG) (PIU) (PIU) (SGU) (DLTU) (DLTU)
                 (PIG) (PIG) (SGG) (SGU) (PIU) (PIU) (SGG) (PIG)
                 (PIG) (SGU) (DLTG) (DLTG) (DLTU) (DLTU) (PIU)
                 (PIU) (SGG) (PIG) (PIG) (SGU) (SGG) (SGU)
 Leave Link  401 at Fri Sep  6 10:00:35 2024, MaxMem=   104857600 cpu:               0.1 elap:               0.1
 (Enter /Users/asuyarger/Applications/G16/g16/l502.exe)
 Keep R1 ints in memory in symmetry-blocked form, NReq=3093479.
 FoFCou: FMM=F IPFlag=           0 FMFlag=           0 FMFlg1=           0
         NFxFlg=           0 DoJE=F BraDBF=F KetDBF=F FulRan=T
         wScrn=  0.000000 ICntrl=       600 IOpCl=  0 I1Cent=           0 NGrid=           0
         NMat0=    1 NMatS0=   1485 NMatT0=    0 NMatD0=    1 NMtDS0=    0 NMtDT0=    0
 Petite list used in FoFCou.
 Closed shell SCF:
 Using DIIS extrapolation, IDIIS=  1040.
 NGot=   104857600 LenX=   104695113 LenY=   104691308
 Requested convergence on RMS density matrix=1.00D-08 within 128 cycles.
 Requested convergence on MAX density matrix=1.00D-06.
 Requested convergence on             energy=1.00D-06.
 No special actions if energy rises.
 Integral accuracy reduced to 1.0D-05 until final iterations.

 Cycle   1  Pass 0  IDiag  1:
 E= -150.124292337612    
 DIIS: error= 1.55D-01 at cycle   1 NSaved=   1.
 NSaved= 1 IEnMin= 1 EnMin= -150.124292337612     IErMin= 1 ErrMin= 1.55D-01
 ErrMax= 1.55D-01  0.00D+00 EMaxC= 1.00D-01 BMatC= 4.32D-01 BMatP= 4.32D-01
 IDIUse=3 WtCom= 0.00D+00 WtEn= 1.00D+00
 Coeff-Com:  0.100D+01
 Coeff-En:   0.100D+01
 Coeff:      0.100D+01
 Gap=     0.230 Goal=   None    Shift=    0.000
 GapD=    0.230 DampG=1.000 DampE=0.250 DampFc=0.2500 IDamp=-1.
 Damping current iteration by 2.50D-01
 RMSDP=9.57D-03 MaxDP=1.35D-01              OVMax= 1.73D-01

 Cycle   2  Pass 0  IDiag  1:
 E= -150.169713681233     Delta-E=       -0.045421343621 Rises=F Damp=T
 DIIS: error= 1.11D-01 at cycle   2 NSaved=   2.
 NSaved= 2 IEnMin= 2 EnMin= -150.169713681233     IErMin= 2 ErrMin= 1.11D-01
 ErrMax= 1.11D-01  0.00D+00 EMaxC= 1.00D-01 BMatC= 1.94D-01 BMatP= 4.32D-01
 IDIUse=3 WtCom= 0.00D+00 WtEn= 1.00D+00
 Coeff-Com: -0.185D+01 0.285D+01
 Coeff-En:   0.000D+00 0.100D+01
 Coeff:      0.000D+00 0.100D+01
 Gap=     0.235 Goal=   None    Shift=    0.000
 RMSDP=6.26D-03 MaxDP=7.83D-02 DE=-4.54D-02 OVMax= 1.98D-02

 Cycle   3  Pass 0  IDiag  1:
 E= -150.242028200102     Delta-E=       -0.072314518869 Rises=F Damp=F
 DIIS: error= 2.86D-02 at cycle   3 NSaved=   3.
 NSaved= 3 IEnMin= 3 EnMin= -150.242028200102     IErMin= 3 ErrMin= 2.86D-02
 ErrMax= 2.86D-02  0.00D+00 EMaxC= 1.00D-01 BMatC= 3.07D-02 BMatP= 1.94D-01
 IDIUse=3 WtCom= 7.14D-01 WtEn= 2.86D-01
 Coeff-Com:  0.338D+01-0.446D+01 0.208D+01
 Coeff-En:   0.000D+00 0.000D+00 0.100D+01
 Coeff:      0.241D+01-0.318D+01 0.177D+01
 Gap=     0.243 Goal=   None    Shift=    0.000
 RMSDP=2.84D-03 MaxDP=4.24D-02 DE=-7.23D-02 OVMax= 3.53D-02

 Cycle   4  Pass 0  IDiag  1:
 E= -150.258684834969     Delta-E=       -0.016656634868 Rises=F Damp=F
 DIIS: error= 6.34D-03 at cycle   4 NSaved=   4.
 NSaved= 4 IEnMin= 4 EnMin= -150.258684834969     IErMin= 4 ErrMin= 6.34D-03
 ErrMax= 6.34D-03  0.00D+00 EMaxC= 1.00D-01 BMatC= 1.44D-03 BMatP= 3.07D-02
 IDIUse=3 WtCom= 9.37D-01 WtEn= 6.34D-02
 Coeff-Com:  0.563D-01-0.721D-01 0.209D+00 0.807D+00
 Coeff-En:   0.000D+00 0.000D+00 0.000D+00 0.100D+01
 Coeff:      0.528D-01-0.675D-01 0.196D+00 0.819D+00
 Gap=     0.241 Goal=   None    Shift=    0.000
 RMSDP=8.64D-04 MaxDP=9.39D-03 DE=-1.67D-02 OVMax= 7.71D-03

 Cycle   5  Pass 0  IDiag  1:
 E= -150.259421247084     Delta-E=       -0.000736412115 Rises=F Damp=F
 DIIS: error= 2.82D-04 at cycle   5 NSaved=   5.
 NSaved= 5 IEnMin= 5 EnMin= -150.259421247084     IErMin= 5 ErrMin= 2.82D-04
 ErrMax= 2.82D-04  0.00D+00 EMaxC= 1.00D-01 BMatC= 1.71D-06 BMatP= 1.44D-03
 IDIUse=3 WtCom= 9.97D-01 WtEn= 2.82D-03
 Coeff-Com: -0.107D-01 0.144D-01-0.386D-01-0.128D+00 0.116D+01
 Coeff-En:   0.000D+00 0.000D+00 0.000D+00 0.000D+00 0.100D+01
 Coeff:     -0.107D-01 0.144D-01-0.385D-01-0.128D+00 0.116D+01
 Gap=     0.241 Goal=   None    Shift=    0.000
 RMSDP=1.20D-04 MaxDP=1.04D-03 DE=-7.36D-04 OVMax= 1.08D-03

 Cycle   6  Pass 0  IDiag  1:
 E= -150.259423866809     Delta-E=       -0.000002619725 Rises=F Damp=F
 DIIS: error= 5.00D-05 at cycle   6 NSaved=   6.
 NSaved= 6 IEnMin= 6 EnMin= -150.259423866809     IErMin= 6 ErrMin= 5.00D-05
 ErrMax= 5.00D-05  0.00D+00 EMaxC= 1.00D-01 BMatC= 4.21D-08 BMatP= 1.71D-06
 IDIUse=1 WtCom= 1.00D+00 WtEn= 0.00D+00
 Coeff-Com: -0.459D-02 0.606D-02-0.612D-02-0.114D-01 0.755D-01 0.940D+00
 Coeff:     -0.459D-02 0.606D-02-0.612D-02-0.114D-01 0.755D-01 0.940D+00
 Gap=     0.241 Goal=   None    Shift=    0.000
 RMSDP=1.01D-05 MaxDP=1.12D-04 DE=-2.62D-06 OVMax= 1.58D-04

 Cycle   7  Pass 0  IDiag  1:
 E= -150.259423925465     Delta-E=       -0.000000058656 Rises=F Damp=F
 DIIS: error= 1.32D-05 at cycle   7 NSaved=   7.
 NSaved= 7 IEnMin= 7 EnMin= -150.259423925465     IErMin= 7 ErrMin= 1.32D-05
 ErrMax= 1.32D-05  0.00D+00 EMaxC= 1.00D-01 BMatC= 3.59D-09 BMatP= 4.21D-08
 IDIUse=1 WtCom= 1.00D+00 WtEn= 0.00D+00
 Coeff-Com: -0.426D-03 0.536D-03 0.138D-02 0.750D-02-0.631D-01-0.458D-01
 Coeff-Com:  0.110D+01
 Coeff:     -0.426D-03 0.536D-03 0.138D-02 0.750D-02-0.631D-01-0.458D-01
 Coeff:      0.110D+01
 Gap=     0.241 Goal=   None    Shift=    0.000
 RMSDP=4.28D-06 MaxDP=4.17D-05 DE=-5.87D-08 OVMax= 6.09D-05

 Initial convergence to 1.0D-05 achieved.  Increase integral accuracy.
 Cycle   8  Pass 1  IDiag  1:
 E= -150.259420487184     Delta-E=        0.000003438281 Rises=F Damp=F
 DIIS: error= 2.71D-06 at cycle   1 NSaved=   1.
 NSaved= 1 IEnMin= 1 EnMin= -150.259420487184     IErMin= 1 ErrMin= 2.71D-06
 ErrMax= 2.71D-06  0.00D+00 EMaxC= 1.00D-01 BMatC= 1.65D-10 BMatP= 1.65D-10
 IDIUse=1 WtCom= 1.00D+00 WtEn= 0.00D+00
 Coeff-Com:  0.100D+01
 Coeff:      0.100D+01
 Gap=     0.241 Goal=   None    Shift=    0.000
 RMSDP=4.28D-06 MaxDP=4.17D-05 DE= 3.44D-06 OVMax= 9.90D-06

 Cycle   9  Pass 1  IDiag  1:
 E= -150.259420487475     Delta-E=       -0.000000000291 Rises=F Damp=F
 DIIS: error= 7.60D-07 at cycle   2 NSaved=   2.
 NSaved= 2 IEnMin= 2 EnMin= -150.259420487475     IErMin= 2 ErrMin= 7.60D-07
 ErrMax= 7.60D-07  0.00D+00 EMaxC= 1.00D-01 BMatC= 2.29D-11 BMatP= 1.65D-10
 IDIUse=1 WtCom= 1.00D+00 WtEn= 0.00D+00
 Coeff-Com:  0.269D-01 0.973D+00
 Coeff:      0.269D-01 0.973D+00
 Gap=     0.241 Goal=   None    Shift=    0.000
 RMSDP=2.72D-07 MaxDP=2.90D-06 DE=-2.91D-10 OVMax= 1.75D-06

 Cycle  10  Pass 1  IDiag  1:
 E= -150.259420487499     Delta-E=       -0.000000000024 Rises=F Damp=F
 DIIS: error= 4.38D-07 at cycle   3 NSaved=   3.
 NSaved= 3 IEnMin= 3 EnMin= -150.259420487499     IErMin= 3 ErrMin= 4.38D-07
 ErrMax= 4.38D-07  0.00D+00 EMaxC= 1.00D-01 BMatC= 4.26D-12 BMatP= 2.29D-11
 IDIUse=1 WtCom= 1.00D+00 WtEn= 0.00D+00
 Coeff-Com: -0.733D-01 0.296D+00 0.777D+00
 Coeff:     -0.733D-01 0.296D+00 0.777D+00
 Gap=     0.241 Goal=   None    Shift=    0.000
 RMSDP=7.06D-08 MaxDP=7.35D-07 DE=-2.43D-11 OVMax= 1.16D-06

 Cycle  11  Pass 1  IDiag  1:
 E= -150.259420487503     Delta-E=       -0.000000000004 Rises=F Damp=F
 DIIS: error= 4.95D-08 at cycle   4 NSaved=   4.
 NSaved= 4 IEnMin= 4 EnMin= -150.259420487503     IErMin= 4 ErrMin= 4.95D-08
 ErrMax= 4.95D-08  0.00D+00 EMaxC= 1.00D-01 BMatC= 5.31D-14 BMatP= 4.26D-12
 IDIUse=1 WtCom= 1.00D+00 WtEn= 0.00D+00
 Coeff-Com:  0.241D-02-0.608D-01-0.779D-01 0.114D+01
 Coeff:      0.241D-02-0.608D-01-0.779D-01 0.114D+01
 Gap=     0.241 Goal=   None    Shift=    0.000
 RMSDP=1.88D-08 MaxDP=2.19D-07 DE=-4.06D-12 OVMax= 2.91D-07

 Cycle  12  Pass 1  IDiag  1:
 E= -150.259420487504     Delta-E=       -0.000000000000 Rises=F Damp=F
 DIIS: error= 6.29D-09 at cycle   5 NSaved=   5.
 NSaved= 5 IEnMin= 5 EnMin= -150.259420487504     IErMin= 5 ErrMin= 6.29D-09
 ErrMax= 6.29D-09  0.00D+00 EMaxC= 1.00D-01 BMatC= 1.11D-15 BMatP= 5.31D-14
 IDIUse=1 WtCom= 1.00D+00 WtEn= 0.00D+00
 Coeff-Com:  0.188D-02-0.141D-01-0.236D-01 0.142D+00 0.894D+00
 Coeff:      0.188D-02-0.141D-01-0.236D-01 0.142D+00 0.894D+00
 Gap=     0.241 Goal=   None    Shift=    0.000
 RMSDP=1.93D-09 MaxDP=1.88D-08 DE=-3.41D-13 OVMax= 2.50D-08

 SCF Done:  E(RwB97XD) =  -150.259420488     A.U. after   12 cycles
            NFock= 12  Conv=0.19D-08     -V/T= 2.0013
 KE= 1.500605409559D+02 PE=-4.138970688019D+02 EE= 8.442133894284D+01
 Leave Link  502 at Fri Sep  6 10:00:35 2024, MaxMem=   104857600 cpu:               0.4 elap:               0.4
 (Enter /Users/asuyarger/Applications/G16/g16/l601.exe)
 Copying SCF densities to generalized density rwf, IOpCl= 0 IROHF=0.

 **********************************************************************

            Population analysis using the SCF density.

 **********************************************************************

 Orbital symmetries:
       Occupied  (SGG) (SGU) (SGG) (SGU) (SGG) (PIU) (PIU) (PIG)
       Virtual   (PIG) (SGG) (SGU) (PIU) (PIU) (SGG) (PIG) (PIG)
                 (SGU) (SGU) (SGU) (?A) (PIU) (PIU) (PIG) (PIG)
                 (?A) (?A) (?A) (PIU) (PIU) (?B) (?B) (?B) (PIG)
                 (SGG) (PIG) (SGU) (PIU) (PIU) (SGG) (PIG) (PIG)
                 (SGU) (?C) (?C) (DLTU) (DLTU) (PIU) (PIU) (?C)
                 (PIG) (PIG) (SGU) (SGG) (SGU)
 Unable to determine electronic state:  partially filled degenerate orbitals.
 Alpha  occ. eigenvalues --  -19.40780 -19.40743  -1.43783  -0.89283  -0.64295
 Alpha  occ. eigenvalues --   -0.63573  -0.63171  -0.33250
 Alpha virt. eigenvalues --   -0.09147   0.16719   0.16801   0.20465   0.21295
 Alpha virt. eigenvalues --    0.27009   0.28218   0.28466   0.40361   0.41361
 Alpha virt. eigenvalues --    0.99618   1.00463   1.00491   1.02390   1.09531
 Alpha virt. eigenvalues --    1.10500   1.22866   1.29029   1.29511   1.38999
 Alpha virt. eigenvalues --    1.41750   1.57615   1.72851   1.73069   2.34343
 Alpha virt. eigenvalues --    2.36231   2.37106   2.58465   4.81353   4.83757
 Alpha virt. eigenvalues --    4.91156   5.09208   5.11804   6.31674   6.62995
 Alpha virt. eigenvalues --    6.63165   6.75342   6.75619   6.79242   6.82520
 Alpha virt. eigenvalues --    6.84284   6.88368   6.91423   7.36746  49.80402
 Alpha virt. eigenvalues --   49.92052
     Molecular Orbital Coefficients:
                           1         2         3         4         5
                       (SGG)--O  (SGU)--O  (SGG)--O  (SGU)--O  (SGG)--O
     Eigenvalues --   -19.40780 -19.40743  -1.43783  -0.89283  -0.64295
   1 1   O  1S          0.39008   0.39009  -0.08483  -0.09029  -0.03234
   2        2S          0.33216   0.33212  -0.13603  -0.14700  -0.05285
   3        2PX         0.00000   0.00000   0.00000   0.00000   0.00000
   4        2PY         0.00000   0.00000   0.00000   0.00000   0.00000
   5        2PZ        -0.00135  -0.00099  -0.08781   0.07097   0.21455
   6        3S          0.00871   0.00868   0.39681   0.44744   0.15511
   7        3PX         0.00000   0.00000   0.00000   0.00000   0.00000
   8        3PY         0.00000   0.00000   0.00000   0.00000   0.00000
   9        3PZ         0.00009  -0.00034  -0.13393   0.09209   0.31766
  10        4S         -0.00369  -0.00704   0.21006   0.46153   0.22475
  11        4PX         0.00000   0.00000   0.00000   0.00000   0.00000
  12        4PY         0.00000   0.00000   0.00000   0.00000   0.00000
  13        4PZ         0.00040   0.00167  -0.03992   0.01880   0.19273
  14        5S          0.00108   0.01676  -0.01040  -0.17370   0.03647
  15        5PX         0.00000   0.00000   0.00000   0.00000   0.00000
  16        5PY         0.00000   0.00000   0.00000   0.00000   0.00000
  17        5PZ        -0.00047  -0.00507   0.00988   0.06230  -0.00200
  18        6D 0        0.00032   0.00019   0.01124  -0.00431  -0.01105
  19        6D+1        0.00000   0.00000   0.00000   0.00000   0.00000
  20        6D-1        0.00000   0.00000   0.00000   0.00000   0.00000
  21        6D+2       -0.00006  -0.00005  -0.00116  -0.00133  -0.00066
  22        6D-2        0.00000   0.00000   0.00000   0.00000   0.00000
  23        7D 0       -0.00072   0.00030   0.02084  -0.00278  -0.02093
  24        7D+1        0.00000   0.00000   0.00000   0.00000   0.00000
  25        7D-1        0.00000   0.00000   0.00000   0.00000   0.00000
  26        7D+2        0.00004   0.00007  -0.00460  -0.00397  -0.00190
  27        7D-2        0.00000   0.00000   0.00000   0.00000   0.00000
  28 2   O  1S          0.39008  -0.39009  -0.08483   0.09029  -0.03234
  29        2S          0.33216  -0.33212  -0.13603   0.14700  -0.05285
  30        2PX         0.00000   0.00000   0.00000   0.00000   0.00000
  31        2PY         0.00000   0.00000   0.00000   0.00000   0.00000
  32        2PZ         0.00135  -0.00099   0.08781   0.07097  -0.21455
  33        3S          0.00871  -0.00868   0.39681  -0.44744   0.15511
  34        3PX         0.00000   0.00000   0.00000   0.00000   0.00000
  35        3PY         0.00000   0.00000   0.00000   0.00000   0.00000
  36        3PZ        -0.00009  -0.00034   0.13393   0.09209  -0.31766
  37        4S         -0.00369   0.00704   0.21006  -0.46153   0.22475
  38        4PX         0.00000   0.00000   0.00000   0.00000   0.00000
  39        4PY         0.00000   0.00000   0.00000   0.00000   0.00000
  40        4PZ        -0.00040   0.00167   0.03992   0.01880  -0.19273
  41        5S          0.00108  -0.01676  -0.01040   0.17370   0.03647
  42        5PX         0.00000   0.00000   0.00000   0.00000   0.00000
  43        5PY         0.00000   0.00000   0.00000   0.00000   0.00000
  44        5PZ         0.00047  -0.00507  -0.00988   0.06230   0.00200
  45        6D 0        0.00032  -0.00019   0.01124   0.00431  -0.01105
  46        6D+1        0.00000   0.00000   0.00000   0.00000   0.00000
  47        6D-1        0.00000   0.00000   0.00000   0.00000   0.00000
  48        6D+2       -0.00006   0.00005  -0.00116   0.00133  -0.00066
  49        6D-2        0.00000   0.00000   0.00000   0.00000   0.00000
  50        7D 0       -0.00072  -0.00030   0.02084   0.00278  -0.02093
  51        7D+1        0.00000   0.00000   0.00000   0.00000   0.00000
  52        7D-1        0.00000   0.00000   0.00000   0.00000   0.00000
  53        7D+2        0.00004  -0.00007  -0.00460   0.00397  -0.00190
  54        7D-2        0.00000   0.00000   0.00000   0.00000   0.00000
                           6         7         8         9        10
                       (PIU)--O  (PIU)--O  (PIG)--O  (PIG)--V  (SGG)--V
     Eigenvalues --    -0.63573  -0.63171  -0.33250  -0.09147   0.16719
   1 1   O  1S          0.00000   0.00000   0.00000   0.00000   0.02609
   2        2S          0.00000   0.00000   0.00000   0.00000   0.04251
   3        2PX         0.00000   0.21365   0.24726   0.00000   0.00000
   4        2PY         0.20826   0.00000   0.00000   0.23862   0.00000
   5        2PZ         0.00000   0.00000   0.00000   0.00000  -0.05103
   6        3S          0.00000   0.00000   0.00000   0.00000  -0.12215
   7        3PX         0.00000   0.31838   0.36287   0.00000   0.00000
   8        3PY         0.31686   0.00000   0.00000   0.35829   0.00000
   9        3PZ         0.00000   0.00000   0.00000   0.00000  -0.03954
  10        4S          0.00000   0.00000   0.00000   0.00000  -0.61617
  11        4PX         0.00000   0.22779   0.36761   0.00000   0.00000
  12        4PY         0.23201   0.00000   0.00000   0.37252   0.00000
  13        4PZ         0.00000   0.00000   0.00000   0.00000  -0.20329
  14        5S          0.00000   0.00000   0.00000   0.00000   0.93382
  15        5PX         0.00000   0.01153   0.09923   0.00000   0.00000
  16        5PY         0.00907   0.00000   0.00000   0.14312   0.00000
  17        5PZ         0.00000   0.00000   0.00000   0.00000   0.39053
  18        6D 0        0.00000   0.00000   0.00000   0.00000  -0.00306
  19        6D+1        0.00000  -0.00964   0.00227   0.00000   0.00000
  20        6D-1       -0.00980   0.00000   0.00000   0.00295   0.00000
  21        6D+2        0.00000   0.00000   0.00000   0.00000   0.00079
  22        6D-2        0.00000   0.00000   0.00000   0.00000   0.00000
  23        7D 0        0.00000   0.00000   0.00000   0.00000   0.00376
  24        7D+1        0.00000  -0.03106   0.00948   0.00000   0.00000
  25        7D-1       -0.03782   0.00000   0.00000   0.00967   0.00000
  26        7D+2        0.00000   0.00000   0.00000   0.00000  -0.00098
  27        7D-2        0.00000   0.00000   0.00000   0.00000   0.00000
  28 2   O  1S          0.00000   0.00000   0.00000   0.00000   0.02609
  29        2S          0.00000   0.00000   0.00000   0.00000   0.04251
  30        2PX         0.00000   0.21365  -0.24726   0.00000   0.00000
  31        2PY         0.20826   0.00000   0.00000  -0.23862   0.00000
  32        2PZ         0.00000   0.00000   0.00000   0.00000   0.05103
  33        3S          0.00000   0.00000   0.00000   0.00000  -0.12215
  34        3PX         0.00000   0.31838  -0.36287   0.00000   0.00000
  35        3PY         0.31686   0.00000   0.00000  -0.35829   0.00000
  36        3PZ         0.00000   0.00000   0.00000   0.00000   0.03954
  37        4S          0.00000   0.00000   0.00000   0.00000  -0.61617
  38        4PX         0.00000   0.22779  -0.36761   0.00000   0.00000
  39        4PY         0.23201   0.00000   0.00000  -0.37252   0.00000
  40        4PZ         0.00000   0.00000   0.00000   0.00000   0.20329
  41        5S          0.00000   0.00000   0.00000   0.00000   0.93382
  42        5PX         0.00000   0.01153  -0.09923   0.00000   0.00000
  43        5PY         0.00907   0.00000   0.00000  -0.14312   0.00000
  44        5PZ         0.00000   0.00000   0.00000   0.00000  -0.39053
  45        6D 0        0.00000   0.00000   0.00000   0.00000  -0.00306
  46        6D+1        0.00000   0.00964   0.00227   0.00000   0.00000
  47        6D-1        0.00980   0.00000   0.00000   0.00295   0.00000
  48        6D+2        0.00000   0.00000   0.00000   0.00000   0.00079
  49        6D-2        0.00000   0.00000   0.00000   0.00000   0.00000
  50        7D 0        0.00000   0.00000   0.00000   0.00000   0.00376
  51        7D+1        0.00000   0.03106   0.00948   0.00000   0.00000
  52        7D-1        0.03782   0.00000   0.00000   0.00967   0.00000
  53        7D+2        0.00000   0.00000   0.00000   0.00000  -0.00098
  54        7D-2        0.00000   0.00000   0.00000   0.00000   0.00000
                          11        12        13        14        15
                       (SGU)--V  (PIU)--V  (PIU)--V  (SGG)--V  (PIG)--V
     Eigenvalues --     0.16801   0.20465   0.21295   0.27009   0.28218
   1 1   O  1S         -0.02769   0.00000   0.00000  -0.01065   0.00000
   2        2S         -0.04703   0.00000   0.00000  -0.01660   0.00000
   3        2PX         0.00000   0.00000  -0.07778   0.00000   0.00000
   4        2PY         0.00000  -0.07677   0.00000   0.00000  -0.08562
   5        2PZ        -0.03128   0.00000   0.00000  -0.03027   0.00000
   6        3S          0.19558   0.00000   0.00000   0.03154   0.00000
   7        3PX         0.00000   0.00000  -0.07386   0.00000   0.00000
   8        3PY         0.00000  -0.07528   0.00000   0.00000  -0.08538
   9        3PZ        -0.03938   0.00000   0.00000  -0.01272   0.00000
  10        4S         -0.22813   0.00000   0.00000   0.40661   0.00000
  11        4PX         0.00000   0.00000  -0.29220   0.00000   0.00000
  12        4PY         0.00000  -0.28990   0.00000   0.00000  -0.41562
  13        4PZ         0.34566   0.00000   0.00000  -0.14345   0.00000
  14        5S          7.09188   0.00000   0.00000  -0.07078   0.00000
  15        5PX         0.00000   0.00000   0.67231   0.00000   0.00000
  16        5PY         0.00000   0.67143   0.00000   0.00000   1.92607
  17        5PZ        -3.10005   0.00000   0.00000   1.33931   0.00000
  18        6D 0       -0.00040   0.00000   0.00000   0.00754   0.00000
  19        6D+1        0.00000   0.00000   0.00432   0.00000   0.00000
  20        6D-1        0.00000   0.00441   0.00000   0.00000  -0.00095
  21        6D+2       -0.00062   0.00000   0.00000  -0.00043   0.00000
  22        6D-2        0.00000   0.00000   0.00000   0.00000   0.00000
  23        7D 0       -0.07427   0.00000   0.00000   0.02880   0.00000
  24        7D+1        0.00000   0.00000   0.01228   0.00000   0.00000
  25        7D-1        0.00000   0.01303   0.00000   0.00000   0.02666
  26        7D+2       -0.00151   0.00000   0.00000   0.00328   0.00000
  27        7D-2        0.00000   0.00000   0.00000   0.00000   0.00000
  28 2   O  1S          0.02769   0.00000   0.00000  -0.01065   0.00000
  29        2S          0.04703   0.00000   0.00000  -0.01660   0.00000
  30        2PX         0.00000   0.00000  -0.07778   0.00000   0.00000
  31        2PY         0.00000  -0.07677   0.00000   0.00000   0.08562
  32        2PZ        -0.03128   0.00000   0.00000   0.03027   0.00000
  33        3S         -0.19558   0.00000   0.00000   0.03154   0.00000
  34        3PX         0.00000   0.00000  -0.07386   0.00000   0.00000
  35        3PY         0.00000  -0.07528   0.00000   0.00000   0.08538
  36        3PZ        -0.03938   0.00000   0.00000   0.01272   0.00000
  37        4S          0.22813   0.00000   0.00000   0.40661   0.00000
  38        4PX         0.00000   0.00000  -0.29220   0.00000   0.00000
  39        4PY         0.00000  -0.28990   0.00000   0.00000   0.41562
  40        4PZ         0.34566   0.00000   0.00000   0.14345   0.00000
  41        5S         -7.09188   0.00000   0.00000  -0.07078   0.00000
  42        5PX         0.00000   0.00000   0.67231   0.00000   0.00000
  43        5PY         0.00000   0.67143   0.00000   0.00000  -1.92607
  44        5PZ        -3.10005   0.00000   0.00000  -1.33931   0.00000
  45        6D 0        0.00040   0.00000   0.00000   0.00754   0.00000
  46        6D+1        0.00000   0.00000  -0.00432   0.00000   0.00000
  47        6D-1        0.00000  -0.00441   0.00000   0.00000  -0.00095
  48        6D+2        0.00062   0.00000   0.00000  -0.00043   0.00000
  49        6D-2        0.00000   0.00000   0.00000   0.00000   0.00000
  50        7D 0        0.07427   0.00000   0.00000   0.02880   0.00000
  51        7D+1        0.00000   0.00000  -0.01228   0.00000   0.00000
  52        7D-1        0.00000  -0.01303   0.00000   0.00000   0.02666
  53        7D+2        0.00151   0.00000   0.00000   0.00328   0.00000
  54        7D-2        0.00000   0.00000   0.00000   0.00000   0.00000
                          16        17        18        19        20
                       (PIG)--V  (SGU)--V  (SGU)--V  (SGU)--V      V
     Eigenvalues --     0.28466   0.40361   0.41361   0.99618   1.00463
   1 1   O  1S          0.00000  -0.04322   0.02491  -0.00680   0.00592
   2        2S          0.00000  -0.07325   0.03966  -0.01113   0.00648
   3        2PX        -0.08013   0.00000   0.00000   0.00000   0.00000
   4        2PY         0.00000   0.00000   0.00000   0.00000   0.00000
   5        2PZ         0.00000  -0.25577   0.00154   0.21821  -0.11910
   6        3S          0.00000   0.22819  -0.06892  -0.08799   0.07810
   7        3PX        -0.07617   0.00000   0.00000   0.00000   0.00000
   8        3PY         0.00000   0.00000   0.00000   0.00000   0.00000
   9        3PZ         0.00000  -0.39482   0.05625   0.37125  -0.51412
  10        4S          0.00000   1.39401  -1.26672   3.57970   0.13270
  11        4PX        -0.39831   0.00000   0.00000   0.00000   0.00000
  12        4PY         0.00000   0.00000   0.00000   0.00000   0.00000
  13        4PZ         0.00000  -1.36218   0.06511  -3.42235   1.19617
  14        5S          0.00000  -0.14869  22.54778  -0.16967  -0.18004
  15        5PX         1.92512   0.00000   0.00000   0.00000   0.00000
  16        5PY         0.00000   0.00000   0.00000   0.00000   0.00000
  17        5PZ         0.00000   0.43360  -7.30192   0.62388  -0.87386
  18        6D 0        0.00000  -0.01800   0.00171  -0.02093   0.02864
  19        6D+1       -0.00065   0.00000   0.00000   0.00000   0.00000
  20        6D-1        0.00000   0.00000   0.00000   0.00000   0.00000
  21        6D+2        0.00000  -0.00081   0.00073  -0.00024   0.00036
  22        6D-2        0.00000   0.00000   0.00000   0.00000   0.00000
  23        7D 0        0.00000   0.00618  -0.03507   0.36115   0.10039
  24        7D+1        0.02612   0.00000   0.00000   0.00000   0.00000
  25        7D-1        0.00000   0.00000   0.00000   0.00000   0.00000
  26        7D+2        0.00000  -0.00346   0.00062  -0.00016   0.02396
  27        7D-2        0.00000   0.00000   0.00000   0.00000   0.00000
  28 2   O  1S          0.00000   0.04322  -0.02491   0.00680   0.00592
  29        2S          0.00000   0.07325  -0.03966   0.01113   0.00648
  30        2PX         0.08013   0.00000   0.00000   0.00000   0.00000
  31        2PY         0.00000   0.00000   0.00000   0.00000   0.00000
  32        2PZ         0.00000  -0.25577   0.00154   0.21821   0.11910
  33        3S          0.00000  -0.22819   0.06892   0.08799   0.07810
  34        3PX         0.07617   0.00000   0.00000   0.00000   0.00000
  35        3PY         0.00000   0.00000   0.00000   0.00000   0.00000
  36        3PZ         0.00000  -0.39482   0.05625   0.37125   0.51412
  37        4S          0.00000  -1.39401   1.26672  -3.57970   0.13270
  38        4PX         0.39831   0.00000   0.00000   0.00000   0.00000
  39        4PY         0.00000   0.00000   0.00000   0.00000   0.00000
  40        4PZ         0.00000  -1.36218   0.06511  -3.42235  -1.19617
  41        5S          0.00000   0.14869 -22.54778   0.16967  -0.18004
  42        5PX        -1.92512   0.00000   0.00000   0.00000   0.00000
  43        5PY         0.00000   0.00000   0.00000   0.00000   0.00000
  44        5PZ         0.00000   0.43360  -7.30192   0.62388   0.87386
  45        6D 0        0.00000   0.01800  -0.00171   0.02093   0.02864
  46        6D+1       -0.00065   0.00000   0.00000   0.00000   0.00000
  47        6D-1        0.00000   0.00000   0.00000   0.00000   0.00000
  48        6D+2        0.00000   0.00081  -0.00073   0.00024   0.00036
  49        6D-2        0.00000   0.00000   0.00000   0.00000   0.00000
  50        7D 0        0.00000  -0.00618   0.03507  -0.36115   0.10039
  51        7D+1        0.02612   0.00000   0.00000   0.00000   0.00000
  52        7D-1        0.00000   0.00000   0.00000   0.00000   0.00000
  53        7D+2        0.00000   0.00346  -0.00062   0.00016   0.02396
  54        7D-2        0.00000   0.00000   0.00000   0.00000   0.00000
                          21        22        23        24        25
                       (PIU)--V  (PIU)--V  (PIG)--V  (PIG)--V      V
     Eigenvalues --     1.00491   1.02390   1.09531   1.10500   1.22866
   1 1   O  1S          0.00000   0.00000   0.00000   0.00000   0.07650
   2        2S          0.00000   0.00000   0.00000   0.00000   0.15215
   3        2PX         0.00000  -0.17759   0.00000  -0.17628   0.00000
   4        2PY        -0.17774   0.00000  -0.17925   0.00000   0.00000
   5        2PZ         0.00000   0.00000   0.00000   0.00000  -0.04629
   6        3S          0.00000   0.00000   0.00000   0.00000  -1.12385
   7        3PX         0.00000  -0.58486   0.00000  -0.56701   0.00000
   8        3PY        -0.58848   0.00000  -0.57252   0.00000   0.00000
   9        3PZ         0.00000   0.00000   0.00000   0.00000  -0.12191
  10        4S          0.00000   0.00000   0.00000   0.00000   1.63063
  11        4PX         0.00000   1.02089   0.00000   1.60121   0.00000
  12        4PY         1.02050   0.00000   1.59418   0.00000   0.00000
  13        4PZ         0.00000   0.00000   0.00000   0.00000   0.18390
  14        5S          0.00000   0.00000   0.00000   0.00000  -0.66625
  15        5PX         0.00000  -0.45935   0.00000  -1.12622   0.00000
  16        5PY        -0.46054   0.00000  -1.11952   0.00000   0.00000
  17        5PZ         0.00000   0.00000   0.00000   0.00000   0.20516
  18        6D 0        0.00000   0.00000   0.00000   0.00000  -0.00886
  19        6D+1        0.00000   0.00564   0.00000   0.01495   0.00000
  20        6D-1        0.00598   0.00000   0.01462   0.00000   0.00000
  21        6D+2        0.00000   0.00000   0.00000   0.00000   0.00100
  22        6D-2        0.00000   0.00000   0.00000   0.00000   0.00000
  23        7D 0        0.00000   0.00000   0.00000   0.00000  -0.20542
  24        7D+1        0.00000   0.08361   0.00000  -0.02983   0.00000
  25        7D-1        0.08238   0.00000  -0.02838   0.00000   0.00000
  26        7D+2        0.00000   0.00000   0.00000   0.00000  -0.14336
  27        7D-2        0.00000   0.00000   0.00000   0.00000   0.00000
  28 2   O  1S          0.00000   0.00000   0.00000   0.00000   0.07650
  29        2S          0.00000   0.00000   0.00000   0.00000   0.15215
  30        2PX         0.00000  -0.17759   0.00000   0.17628   0.00000
  31        2PY        -0.17774   0.00000   0.17925   0.00000   0.00000
  32        2PZ         0.00000   0.00000   0.00000   0.00000   0.04629
  33        3S          0.00000   0.00000   0.00000   0.00000  -1.12385
  34        3PX         0.00000  -0.58486   0.00000   0.56701   0.00000
  35        3PY        -0.58848   0.00000   0.57252   0.00000   0.00000
  36        3PZ         0.00000   0.00000   0.00000   0.00000   0.12191
  37        4S          0.00000   0.00000   0.00000   0.00000   1.63063
  38        4PX         0.00000   1.02089   0.00000  -1.60121   0.00000
  39        4PY         1.02050   0.00000  -1.59418   0.00000   0.00000
  40        4PZ         0.00000   0.00000   0.00000   0.00000  -0.18390
  41        5S          0.00000   0.00000   0.00000   0.00000  -0.66625
  42        5PX         0.00000  -0.45935   0.00000   1.12622   0.00000
  43        5PY        -0.46054   0.00000   1.11952   0.00000   0.00000
  44        5PZ         0.00000   0.00000   0.00000   0.00000  -0.20516
  45        6D 0        0.00000   0.00000   0.00000   0.00000  -0.00886
  46        6D+1        0.00000  -0.00564   0.00000   0.01495   0.00000
  47        6D-1       -0.00598   0.00000   0.01462   0.00000   0.00000
  48        6D+2        0.00000   0.00000   0.00000   0.00000   0.00100
  49        6D-2        0.00000   0.00000   0.00000   0.00000   0.00000
  50        7D 0        0.00000   0.00000   0.00000   0.00000  -0.20542
  51        7D+1        0.00000  -0.08361   0.00000  -0.02983   0.00000
  52        7D-1       -0.08238   0.00000  -0.02838   0.00000   0.00000
  53        7D+2        0.00000   0.00000   0.00000   0.00000  -0.14336
  54        7D-2        0.00000   0.00000   0.00000   0.00000   0.00000
                          26        27        28        29        30
                           V         V     (PIU)--V  (PIU)--V      V
     Eigenvalues --     1.29029   1.29511   1.38999   1.41750   1.57615
   1 1   O  1S          0.00000   0.01656   0.00000   0.00000  -0.08179
   2        2S          0.00000   0.03365   0.00000   0.00000  -0.16680
   3        2PX         0.00000   0.00000   0.00000   0.07628   0.00000
   4        2PY         0.00000   0.00000   0.07791   0.00000   0.00000
   5        2PZ         0.00000  -0.00584   0.00000   0.00000  -0.02286
   6        3S          0.00000  -0.25876   0.00000   0.00000   1.50054
   7        3PX         0.00000   0.00000   0.00000   0.15095   0.00000
   8        3PY         0.00000   0.00000   0.15477   0.00000   0.00000
   9        3PZ         0.00000  -0.00640   0.00000   0.00000   0.18589
  10        4S          0.00000   0.36827   0.00000   0.00000  -5.36524
  11        4PX         0.00000   0.00000   0.00000   0.03197   0.00000
  12        4PY         0.00000   0.00000   0.03686   0.00000   0.00000
  13        4PZ         0.00000  -0.00546   0.00000   0.00000   2.01924
  14        5S          0.00000  -0.14388   0.00000   0.00000  11.40239
  15        5PX         0.00000   0.00000   0.00000  -0.03528   0.00000
  16        5PY         0.00000   0.00000  -0.03681   0.00000   0.00000
  17        5PZ         0.00000   0.07506   0.00000   0.00000  -3.56937
  18        6D 0        0.00000  -0.00279   0.00000   0.00000   0.01562
  19        6D+1        0.00000   0.00000   0.00000   0.02479   0.00000
  20        6D-1        0.00000   0.00000   0.02433   0.00000   0.00000
  21        6D+2        0.00000   0.00639   0.00000   0.00000  -0.00202
  22        6D-2        0.00609   0.00000   0.00000   0.00000   0.00000
  23        7D 0        0.00000  -0.04858   0.00000   0.00000  -0.15061
  24        7D+1        0.00000   0.00000   0.00000   0.59142   0.00000
  25        7D-1        0.00000   0.00000   0.59135   0.00000   0.00000
  26        7D+2        0.00000   0.62335   0.00000   0.00000   0.06028
  27        7D-2        0.64007   0.00000   0.00000   0.00000   0.00000
  28 2   O  1S          0.00000   0.01656   0.00000   0.00000   0.08179
  29        2S          0.00000   0.03365   0.00000   0.00000   0.16680
  30        2PX         0.00000   0.00000   0.00000   0.07628   0.00000
  31        2PY         0.00000   0.00000   0.07791   0.00000   0.00000
  32        2PZ         0.00000   0.00584   0.00000   0.00000  -0.02286
  33        3S          0.00000  -0.25876   0.00000   0.00000  -1.50054
  34        3PX         0.00000   0.00000   0.00000   0.15095   0.00000
  35        3PY         0.00000   0.00000   0.15477   0.00000   0.00000
  36        3PZ         0.00000   0.00640   0.00000   0.00000   0.18589
  37        4S          0.00000   0.36827   0.00000   0.00000   5.36524
  38        4PX         0.00000   0.00000   0.00000   0.03197   0.00000
  39        4PY         0.00000   0.00000   0.03686   0.00000   0.00000
  40        4PZ         0.00000   0.00546   0.00000   0.00000   2.01924
  41        5S          0.00000  -0.14388   0.00000   0.00000 -11.40239
  42        5PX         0.00000   0.00000   0.00000  -0.03528   0.00000
  43        5PY         0.00000   0.00000  -0.03681   0.00000   0.00000
  44        5PZ         0.00000  -0.07506   0.00000   0.00000  -3.56937
  45        6D 0        0.00000  -0.00279   0.00000   0.00000  -0.01562
  46        6D+1        0.00000   0.00000   0.00000  -0.02479   0.00000
  47        6D-1        0.00000   0.00000  -0.02433   0.00000   0.00000
  48        6D+2        0.00000   0.00639   0.00000   0.00000   0.00202
  49        6D-2        0.00609   0.00000   0.00000   0.00000   0.00000
  50        7D 0        0.00000  -0.04858   0.00000   0.00000   0.15061
  51        7D+1        0.00000   0.00000   0.00000  -0.59142   0.00000
  52        7D-1        0.00000   0.00000  -0.59135   0.00000   0.00000
  53        7D+2        0.00000   0.62335   0.00000   0.00000  -0.06028
  54        7D-2        0.64007   0.00000   0.00000   0.00000   0.00000
                          31        32        33        34        35
                           V         V     (PIG)--V  (SGG)--V  (PIG)--V
     Eigenvalues --     1.72851   1.73069   2.34343   2.36231   2.37106
   1 1   O  1S          0.00000  -0.00503   0.00000  -0.04344   0.00000
   2        2S          0.00000  -0.01086   0.00000  -0.09794   0.00000
   3        2PX         0.00000   0.00000   0.00000   0.00000  -0.03940
   4        2PY         0.00000   0.00000  -0.03748   0.00000   0.00000
   5        2PZ         0.00000   0.00049   0.00000  -0.03722   0.00000
   6        3S          0.00000   0.11061   0.00000   0.97632   0.00000
   7        3PX         0.00000   0.00000   0.00000   0.00000  -0.01959
   8        3PY         0.00000   0.00000  -0.02160   0.00000   0.00000
   9        3PZ         0.00000   0.02415   0.00000  -0.56436   0.00000
  10        4S          0.00000  -0.48344   0.00000  -0.43855   0.00000
  11        4PX         0.00000   0.00000   0.00000   0.00000  -0.94837
  12        4PY         0.00000   0.00000  -0.94847   0.00000   0.00000
  13        4PZ         0.00000   0.19992   0.00000   0.81570   0.00000
  14        5S          0.00000   0.90700   0.00000   0.00860   0.00000
  15        5PX         0.00000   0.00000   0.00000   0.00000   0.29224
  16        5PY         0.00000   0.00000   0.29170   0.00000   0.00000
  17        5PZ         0.00000  -0.28730   0.00000  -0.25286   0.00000
  18        6D 0        0.00000   0.00129   0.00000  -0.01896   0.00000
  19        6D+1        0.00000   0.00000   0.00000   0.00000   0.00346
  20        6D-1        0.00000   0.00000   0.00353   0.00000   0.00000
  21        6D+2        0.00000  -0.01039   0.00000  -0.00234   0.00000
  22        6D-2        0.01029   0.00000   0.00000   0.00000   0.00000
  23        7D 0        0.00000  -0.02925   0.00000  -0.88203   0.00000
  24        7D+1        0.00000   0.00000   0.00000   0.00000   1.24121
  25        7D-1        0.00000   0.00000   1.24142   0.00000   0.00000
  26        7D+2        0.00000  -0.78814   0.00000   0.00271   0.00000
  27        7D-2        0.79047   0.00000   0.00000   0.00000   0.00000
  28 2   O  1S          0.00000   0.00503   0.00000  -0.04344   0.00000
  29        2S          0.00000   0.01086   0.00000  -0.09794   0.00000
  30        2PX         0.00000   0.00000   0.00000   0.00000   0.03940
  31        2PY         0.00000   0.00000   0.03748   0.00000   0.00000
  32        2PZ         0.00000   0.00049   0.00000   0.03722   0.00000
  33        3S          0.00000  -0.11061   0.00000   0.97632   0.00000
  34        3PX         0.00000   0.00000   0.00000   0.00000   0.01959
  35        3PY         0.00000   0.00000   0.02160   0.00000   0.00000
  36        3PZ         0.00000   0.02415   0.00000   0.56436   0.00000
  37        4S          0.00000   0.48344   0.00000  -0.43855   0.00000
  38        4PX         0.00000   0.00000   0.00000   0.00000   0.94837
  39        4PY         0.00000   0.00000   0.94847   0.00000   0.00000
  40        4PZ         0.00000   0.19992   0.00000  -0.81570   0.00000
  41        5S          0.00000  -0.90700   0.00000   0.00860   0.00000
  42        5PX         0.00000   0.00000   0.00000   0.00000  -0.29224
  43        5PY         0.00000   0.00000  -0.29170   0.00000   0.00000
  44        5PZ         0.00000  -0.28730   0.00000   0.25286   0.00000
  45        6D 0        0.00000  -0.00129   0.00000  -0.01896   0.00000
  46        6D+1        0.00000   0.00000   0.00000   0.00000   0.00346
  47        6D-1        0.00000   0.00000   0.00353   0.00000   0.00000
  48        6D+2        0.00000   0.01039   0.00000  -0.00234   0.00000
  49        6D-2       -0.01029   0.00000   0.00000   0.00000   0.00000
  50        7D 0        0.00000   0.02925   0.00000  -0.88203   0.00000
  51        7D+1        0.00000   0.00000   0.00000   0.00000   1.24121
  52        7D-1        0.00000   0.00000   1.24142   0.00000   0.00000
  53        7D+2        0.00000   0.78814   0.00000   0.00271   0.00000
  54        7D-2       -0.79047   0.00000   0.00000   0.00000   0.00000
                          36        37        38        39        40
                       (SGU)--V  (PIU)--V  (PIU)--V  (SGG)--V  (PIG)--V
     Eigenvalues --     2.58465   4.81353   4.83757   4.91156   5.09208
   1 1   O  1S         -0.01108   0.00000   0.00000  -0.00790   0.00000
   2        2S         -0.01938   0.00000   0.00000  -0.00782   0.00000
   3        2PX         0.00000   0.00000  -0.89545   0.00000   0.00000
   4        2PY         0.00000  -0.89663   0.00000   0.00000  -0.90948
   5        2PZ        -0.19688   0.00000   0.00000  -0.89422   0.00000
   6        3S         -0.28856   0.00000   0.00000  -0.05780   0.00000
   7        3PX         0.00000   0.00000   1.05538   0.00000   0.00000
   8        3PY         0.00000   1.05318   0.00000   0.00000   1.13519
   9        3PZ        -0.72218   0.00000   0.00000   0.99958   0.00000
  10        4S          6.65727   0.00000   0.00000  -0.10452   0.00000
  11        4PX         0.00000   0.00000  -0.52828   0.00000   0.00000
  12        4PY         0.00000  -0.52807   0.00000   0.00000  -0.67890
  13        4PZ        -3.98528   0.00000   0.00000  -0.65899   0.00000
  14        5S         -3.88708   0.00000   0.00000   0.10374   0.00000
  15        5PX         0.00000   0.00000   0.17414   0.00000   0.00000
  16        5PY         0.00000   0.17420   0.00000   0.00000   0.38918
  17        5PZ         1.50303   0.00000   0.00000   0.27803   0.00000
  18        6D 0       -0.00121   0.00000   0.00000  -0.12226   0.00000
  19        6D+1        0.00000   0.00000  -0.01696   0.00000   0.00000
  20        6D-1        0.00000  -0.01731   0.00000   0.00000   0.01777
  21        6D+2        0.00027   0.00000   0.00000  -0.00114   0.00000
  22        6D-2        0.00000   0.00000   0.00000   0.00000   0.00000
  23        7D 0        1.67102   0.00000   0.00000   0.20128   0.00000
  24        7D+1        0.00000   0.00000   0.06678   0.00000   0.00000
  25        7D-1        0.00000   0.06671   0.00000   0.00000  -0.14126
  26        7D+2       -0.00835   0.00000   0.00000   0.00045   0.00000
  27        7D-2        0.00000   0.00000   0.00000   0.00000   0.00000
  28 2   O  1S          0.01108   0.00000   0.00000  -0.00790   0.00000
  29        2S          0.01938   0.00000   0.00000  -0.00782   0.00000
  30        2PX         0.00000   0.00000  -0.89545   0.00000   0.00000
  31        2PY         0.00000  -0.89663   0.00000   0.00000   0.90948
  32        2PZ        -0.19688   0.00000   0.00000   0.89422   0.00000
  33        3S          0.28856   0.00000   0.00000  -0.05780   0.00000
  34        3PX         0.00000   0.00000   1.05538   0.00000   0.00000
  35        3PY         0.00000   1.05318   0.00000   0.00000  -1.13519
  36        3PZ        -0.72218   0.00000   0.00000  -0.99958   0.00000
  37        4S         -6.65727   0.00000   0.00000  -0.10452   0.00000
  38        4PX         0.00000   0.00000  -0.52828   0.00000   0.00000
  39        4PY         0.00000  -0.52807   0.00000   0.00000   0.67890
  40        4PZ        -3.98528   0.00000   0.00000   0.65899   0.00000
  41        5S          3.88708   0.00000   0.00000   0.10374   0.00000
  42        5PX         0.00000   0.00000   0.17414   0.00000   0.00000
  43        5PY         0.00000   0.17420   0.00000   0.00000  -0.38918
  44        5PZ         1.50303   0.00000   0.00000  -0.27803   0.00000
  45        6D 0        0.00121   0.00000   0.00000  -0.12226   0.00000
  46        6D+1        0.00000   0.00000   0.01696   0.00000   0.00000
  47        6D-1        0.00000   0.01731   0.00000   0.00000   0.01777
  48        6D+2       -0.00027   0.00000   0.00000  -0.00114   0.00000
  49        6D-2        0.00000   0.00000   0.00000   0.00000   0.00000
  50        7D 0       -1.67102   0.00000   0.00000   0.20128   0.00000
  51        7D+1        0.00000   0.00000  -0.06678   0.00000   0.00000
  52        7D-1        0.00000  -0.06671   0.00000   0.00000  -0.14126
  53        7D+2        0.00835   0.00000   0.00000   0.00045   0.00000
  54        7D-2        0.00000   0.00000   0.00000   0.00000   0.00000
                          41        42        43        44        45
                       (PIG)--V  (SGU)--V      V         V     (DLTU)--
     Eigenvalues --     5.11804   6.31674   6.62995   6.63165   6.75342
   1 1   O  1S          0.00000  -0.02701   0.00000  -0.00135   0.00000
   2        2S          0.00000  -0.04232   0.00000  -0.00254   0.00000
   3        2PX        -0.90817   0.00000   0.00000   0.00000   0.00000
   4        2PY         0.00000   0.00000   0.00000   0.00000   0.00000
   5        2PZ         0.00000   0.96442   0.00000  -0.01518   0.00000
   6        3S          0.00000  -0.06114   0.00000   0.03514   0.00000
   7        3PX         1.13718   0.00000   0.00000   0.00000   0.00000
   8        3PY         0.00000   0.00000   0.00000   0.00000   0.00000
   9        3PZ         0.00000  -2.08686   0.00000  -0.00050   0.00000
  10        4S          0.00000   4.41364   0.00000  -0.00866   0.00000
  11        4PX        -0.67570   0.00000   0.00000   0.00000   0.00000
  12        4PY         0.00000   0.00000   0.00000   0.00000   0.00000
  13        4PZ         0.00000  -1.91140   0.00000   0.01530   0.00000
  14        5S          0.00000  -3.99551   0.00000  -0.00228   0.00000
  15        5PX         0.38785   0.00000   0.00000   0.00000   0.00000
  16        5PY         0.00000   0.00000   0.00000   0.00000   0.00000
  17        5PZ         0.00000   1.27901   0.00000   0.00391   0.00000
  18        6D 0        0.00000  -0.19682   0.00000   0.06796   0.00000
  19        6D+1        0.01791   0.00000   0.00000   0.00000   0.00000
  20        6D-1        0.00000   0.00000   0.00000   0.00000   0.00000
  21        6D+2        0.00000  -0.01361   0.00000   0.78850   0.00000
  22        6D-2        0.00000   0.00000   0.79110   0.00000   0.80342
  23        7D 0        0.00000   1.26011   0.00000  -0.05554   0.00000
  24        7D+1       -0.14392   0.00000   0.00000   0.00000   0.00000
  25        7D-1        0.00000   0.00000   0.00000   0.00000   0.00000
  26        7D+2        0.00000   0.00690   0.00000  -0.32781   0.00000
  27        7D-2        0.00000   0.00000  -0.32893   0.00000  -0.43780
  28 2   O  1S          0.00000   0.02701   0.00000  -0.00135   0.00000
  29        2S          0.00000   0.04232   0.00000  -0.00254   0.00000
  30        2PX         0.90817   0.00000   0.00000   0.00000   0.00000
  31        2PY         0.00000   0.00000   0.00000   0.00000   0.00000
  32        2PZ         0.00000   0.96442   0.00000   0.01518   0.00000
  33        3S          0.00000   0.06114   0.00000   0.03514   0.00000
  34        3PX        -1.13718   0.00000   0.00000   0.00000   0.00000
  35        3PY         0.00000   0.00000   0.00000   0.00000   0.00000
  36        3PZ         0.00000  -2.08686   0.00000   0.00050   0.00000
  37        4S          0.00000  -4.41364   0.00000  -0.00866   0.00000
  38        4PX         0.67570   0.00000   0.00000   0.00000   0.00000
  39        4PY         0.00000   0.00000   0.00000   0.00000   0.00000
  40        4PZ         0.00000  -1.91140   0.00000  -0.01530   0.00000
  41        5S          0.00000   3.99551   0.00000  -0.00228   0.00000
  42        5PX        -0.38785   0.00000   0.00000   0.00000   0.00000
  43        5PY         0.00000   0.00000   0.00000   0.00000   0.00000
  44        5PZ         0.00000   1.27901   0.00000  -0.00391   0.00000
  45        6D 0        0.00000   0.19682   0.00000   0.06796   0.00000
  46        6D+1        0.01791   0.00000   0.00000   0.00000   0.00000
  47        6D-1        0.00000   0.00000   0.00000   0.00000   0.00000
  48        6D+2        0.00000   0.01361   0.00000   0.78850   0.00000
  49        6D-2        0.00000   0.00000   0.79110   0.00000  -0.80342
  50        7D 0        0.00000  -1.26011   0.00000  -0.05554   0.00000
  51        7D+1       -0.14392   0.00000   0.00000   0.00000   0.00000
  52        7D-1        0.00000   0.00000   0.00000   0.00000   0.00000
  53        7D+2        0.00000  -0.00690   0.00000  -0.32781   0.00000
  54        7D-2        0.00000   0.00000  -0.32893   0.00000   0.43780
                          46        47        48        49        50
                       (DLTU)--  (PIU)--V  (PIU)--V      V     (PIG)--V
     Eigenvalues --     6.75619   6.79242   6.82520   6.84284   6.88368
   1 1   O  1S         -0.00154   0.00000   0.00000  -0.00670   0.00000
   2        2S         -0.00160   0.00000   0.00000  -0.02204   0.00000
   3        2PX         0.00000   0.00000  -0.01558   0.00000   0.00000
   4        2PY         0.00000  -0.01593   0.00000   0.00000   0.01383
   5        2PZ         0.02268   0.00000   0.00000  -0.17280   0.00000
   6        3S          0.00693   0.00000   0.00000   0.34538   0.00000
   7        3PX         0.00000   0.00000  -0.01696   0.00000   0.00000
   8        3PY         0.00000  -0.01624   0.00000   0.00000   0.02979
   9        3PZ        -0.04186   0.00000   0.00000  -0.01000   0.00000
  10        4S          0.02317   0.00000   0.00000  -0.04258   0.00000
  11        4PX         0.00000   0.00000  -0.05720   0.00000   0.00000
  12        4PY         0.00000  -0.05787   0.00000   0.00000   0.38073
  13        4PZ         0.00165   0.00000   0.00000   0.17686   0.00000
  14        5S         -0.04715   0.00000   0.00000  -0.04412   0.00000
  15        5PX         0.00000   0.00000   0.02821   0.00000   0.00000
  16        5PY         0.00000   0.02842   0.00000   0.00000  -0.09651
  17        5PZ         0.01228   0.00000   0.00000   0.05391   0.00000
  18        6D 0        0.01829   0.00000   0.00000   0.83997   0.00000
  19        6D+1        0.00000   0.00000   0.81143   0.00000   0.00000
  20        6D-1        0.00000   0.81143   0.00000   0.00000   0.81815
  21        6D+2        0.80300   0.00000   0.00000  -0.06398   0.00000
  22        6D-2        0.00000   0.00000   0.00000   0.00000   0.00000
  23        7D 0        0.00702   0.00000   0.00000  -0.66365   0.00000
  24        7D+1        0.00000   0.00000  -0.37736   0.00000   0.00000
  25        7D-1        0.00000  -0.37712   0.00000   0.00000  -0.68752
  26        7D+2       -0.43752   0.00000   0.00000   0.02639   0.00000
  27        7D-2        0.00000   0.00000   0.00000   0.00000   0.00000
  28 2   O  1S          0.00154   0.00000   0.00000  -0.00670   0.00000
  29        2S          0.00160   0.00000   0.00000  -0.02204   0.00000
  30        2PX         0.00000   0.00000  -0.01558   0.00000   0.00000
  31        2PY         0.00000  -0.01593   0.00000   0.00000  -0.01383
  32        2PZ         0.02268   0.00000   0.00000   0.17280   0.00000
  33        3S         -0.00693   0.00000   0.00000   0.34538   0.00000
  34        3PX         0.00000   0.00000  -0.01696   0.00000   0.00000
  35        3PY         0.00000  -0.01624   0.00000   0.00000  -0.02979
  36        3PZ        -0.04186   0.00000   0.00000   0.01000   0.00000
  37        4S         -0.02317   0.00000   0.00000  -0.04258   0.00000
  38        4PX         0.00000   0.00000  -0.05720   0.00000   0.00000
  39        4PY         0.00000  -0.05787   0.00000   0.00000  -0.38073
  40        4PZ         0.00165   0.00000   0.00000  -0.17686   0.00000
  41        5S          0.04715   0.00000   0.00000  -0.04412   0.00000
  42        5PX         0.00000   0.00000   0.02821   0.00000   0.00000
  43        5PY         0.00000   0.02842   0.00000   0.00000   0.09651
  44        5PZ         0.01228   0.00000   0.00000  -0.05391   0.00000
  45        6D 0       -0.01829   0.00000   0.00000   0.83997   0.00000
  46        6D+1        0.00000   0.00000  -0.81143   0.00000   0.00000
  47        6D-1        0.00000  -0.81143   0.00000   0.00000   0.81815
  48        6D+2       -0.80300   0.00000   0.00000  -0.06398   0.00000
  49        6D-2        0.00000   0.00000   0.00000   0.00000   0.00000
  50        7D 0       -0.00702   0.00000   0.00000  -0.66365   0.00000
  51        7D+1        0.00000   0.00000   0.37736   0.00000   0.00000
  52        7D-1        0.00000   0.37712   0.00000   0.00000  -0.68752
  53        7D+2        0.43752   0.00000   0.00000   0.02639   0.00000
  54        7D-2        0.00000   0.00000   0.00000   0.00000   0.00000
                          51        52        53        54
                       (PIG)--V  (SGU)--V  (SGG)--V  (SGU)--V
     Eigenvalues --     6.91423   7.36746  49.80402  49.92052
   1 1   O  1S          0.00000   0.01184  -1.58904  -1.58852
   2        2S          0.00000   0.00944   1.65240   1.65738
   3        2PX         0.01419   0.00000   0.00000   0.00000
   4        2PY         0.00000   0.00000   0.00000   0.00000
   5        2PZ         0.00000  -0.23835   0.00775  -0.03157
   6        3S          0.00000  -0.05702  -0.22129  -0.21007
   7        3PX         0.02998   0.00000   0.00000   0.00000
   8        3PY         0.00000   0.00000   0.00000   0.00000
   9        3PZ         0.00000   0.27156   0.01522   0.08979
  10        4S          0.00000   1.25816   0.16856   0.19937
  11        4PX         0.38041   0.00000   0.00000   0.00000
  12        4PY         0.00000   0.00000   0.00000   0.00000
  13        4PZ         0.00000  -1.00964  -0.03813  -0.02730
  14        5S          0.00000   0.20977  -0.04941  -0.72779
  15        5PX        -0.09642   0.00000   0.00000   0.00000
  16        5PY         0.00000   0.00000   0.00000   0.00000
  17        5PZ         0.00000   0.04325   0.02951   0.22001
  18        6D 0        0.00000  -0.80172  -0.01486  -0.00139
  19        6D+1        0.81814   0.00000   0.00000   0.00000
  20        6D-1        0.00000   0.00000   0.00000   0.00000
  21        6D+2        0.00000   0.02164  -0.00014  -0.00014
  22        6D-2        0.00000   0.00000   0.00000   0.00000
  23        7D 0        0.00000   0.48577   0.05056  -0.05671
  24        7D+1       -0.68731   0.00000   0.00000   0.00000
  25        7D-1        0.00000   0.00000   0.00000   0.00000
  26        7D+2        0.00000  -0.01165   0.00003   0.00005
  27        7D-2        0.00000   0.00000   0.00000   0.00000
  28 2   O  1S          0.00000  -0.01184  -1.58904   1.58852
  29        2S          0.00000  -0.00944   1.65240  -1.65738
  30        2PX        -0.01419   0.00000   0.00000   0.00000
  31        2PY         0.00000   0.00000   0.00000   0.00000
  32        2PZ         0.00000  -0.23835  -0.00775  -0.03157
  33        3S          0.00000   0.05702  -0.22129   0.21007
  34        3PX        -0.02998   0.00000   0.00000   0.00000
  35        3PY         0.00000   0.00000   0.00000   0.00000
  36        3PZ         0.00000   0.27156  -0.01522   0.08979
  37        4S          0.00000  -1.25816   0.16856  -0.19937
  38        4PX        -0.38041   0.00000   0.00000   0.00000
  39        4PY         0.00000   0.00000   0.00000   0.00000
  40        4PZ         0.00000  -1.00964   0.03813  -0.02730
  41        5S          0.00000  -0.20977  -0.04941   0.72779
  42        5PX         0.09642   0.00000   0.00000   0.00000
  43        5PY         0.00000   0.00000   0.00000   0.00000
  44        5PZ         0.00000   0.04325  -0.02951   0.22001
  45        6D 0        0.00000   0.80172  -0.01486   0.00139
  46        6D+1        0.81814   0.00000   0.00000   0.00000
  47        6D-1        0.00000   0.00000   0.00000   0.00000
  48        6D+2        0.00000  -0.02164  -0.00014   0.00014
  49        6D-2        0.00000   0.00000   0.00000   0.00000
  50        7D 0        0.00000  -0.48577   0.05056   0.05671
  51        7D+1       -0.68731   0.00000   0.00000   0.00000
  52        7D-1        0.00000   0.00000   0.00000   0.00000
  53        7D+2        0.00000   0.01165   0.00003  -0.00005
  54        7D-2        0.00000   0.00000   0.00000   0.00000
     Density Matrix:
                           1         2         3         4         5
   1 1   O  1S          0.64145
   2        2S          0.57129   0.52707
   3        2PX        -0.00000  -0.00000   0.21357
   4        2PY        -0.00000  -0.00000   0.00000   0.08675
   5        2PZ        -0.01363  -0.02121  -0.00000   0.00000   0.11757
   6        3S         -0.14459  -0.24434   0.00000   0.00000   0.06034
   7        3PX        -0.00000  -0.00000   0.31549   0.00000  -0.00000
   8        3PY        -0.00000  -0.00000   0.00000   0.13198   0.00000
   9        3PZ        -0.01465  -0.02438  -0.00000   0.00000   0.17290
  10        4S         -0.14189  -0.22371   0.00000   0.00000   0.12509
  11        4PX        -0.00000  -0.00000   0.27913   0.00000  -0.00000
  12        4PY        -0.00000  -0.00000   0.00000   0.09664  -0.00000
  13        4PZ        -0.00747  -0.01366  -0.00000  -0.00000   0.09237
  14        5S          0.04469   0.06189  -0.00000  -0.00000  -0.00721
  15        5PX        -0.00000  -0.00000   0.05399   0.00000  -0.00000
  16        5PY        -0.00000  -0.00000   0.00000   0.00378   0.00000
  17        5PZ        -0.01711  -0.02447  -0.00000   0.00000   0.00626
  18        6D 0       -0.00002  -0.00028  -0.00000  -0.00000  -0.00733
  19        6D+1       -0.00000  -0.00000  -0.00299   0.00000  -0.00000
  20        6D-1        0.00000   0.00000   0.00000  -0.00408  -0.00000
  21        6D+2        0.00039   0.00070  -0.00000   0.00000  -0.00027
  22        6D-2        0.00000   0.00000  -0.00000  -0.00000   0.00000
  23        7D 0       -0.00201  -0.00292   0.00000   0.00000  -0.01303
  24        7D+1       -0.00000  -0.00000  -0.00859   0.00000  -0.00000
  25        7D-1       -0.00000  -0.00000   0.00000  -0.01575  -0.00000
  26        7D+2        0.00170   0.00269  -0.00000   0.00000  -0.00057
  27        7D-2        0.00000   0.00000  -0.00000  -0.00000   0.00000
  28 2   O  1S          0.00016  -0.00003   0.00000   0.00000   0.01356
  29        2S         -0.00003  -0.00057   0.00000   0.00000   0.02184
  30        2PX        -0.00000  -0.00000  -0.03098   0.00000  -0.00000
  31        2PY        -0.00000  -0.00000   0.00000   0.08675  -0.00000
  32        2PZ        -0.01356  -0.02184  -0.00000  -0.00000  -0.09741
  33        3S          0.00347   0.00722  -0.00000  -0.00000  -0.06665
  34        3PX        -0.00000  -0.00000  -0.04340   0.00000  -0.00000
  35        3PY        -0.00000  -0.00000   0.00000   0.13198  -0.00000
  36        3PZ        -0.01914  -0.03022  -0.00000  -0.00000  -0.14676
  37        4S          0.03579   0.05702  -0.00000  -0.00000  -0.00597
  38        4PX         0.00000   0.00000  -0.08446   0.00000  -0.00000
  39        4PY         0.00000   0.00000   0.00000   0.09664  -0.00000
  40        4PZ         0.00329   0.00483  -0.00000  -0.00000  -0.08704
  41        5S         -0.04419  -0.06250   0.00000   0.00000   0.04217
  42        5PX        -0.00000  -0.00000  -0.04414   0.00000   0.00000
  43        5PY        -0.00000  -0.00000   0.00000   0.00378   0.00000
  44        5PZ        -0.01329  -0.01890   0.00000   0.00000   0.01144
  45        6D 0       -0.00187  -0.00307  -0.00000  -0.00000  -0.00610
  46        6D+1       -0.00000  -0.00000   0.00524   0.00000  -0.00000
  47        6D-1       -0.00000  -0.00000   0.00000   0.00408  -0.00000
  48        6D+2       -0.00001  -0.00001   0.00000  -0.00000   0.00011
  49        6D-2        0.00000   0.00000   0.00000   0.00000   0.00000
  50        7D 0       -0.00348  -0.00495  -0.00000  -0.00000  -0.01224
  51        7D+1       -0.00000  -0.00000   0.01796   0.00000  -0.00000
  52        7D-1       -0.00000  -0.00000   0.00000   0.01575  -0.00000
  53        7D+2        0.00016   0.00027   0.00000  -0.00000   0.00056
  54        7D-2        0.00000   0.00000   0.00000   0.00000   0.00000
                           6         7         8         9        10
   6        3S          0.76375
   7        3PX         0.00000   0.46608
   8        3PY         0.00000   0.00000   0.20081
   9        3PZ         0.07466  -0.00000   0.00000   0.25466
  10        4S          0.64925   0.00000   0.00000   0.17154   0.61542
  11        4PX         0.00000   0.41184   0.00000  -0.00000   0.00000
  12        4PY         0.00000   0.00000   0.14703  -0.00000   0.00000
  13        4PZ         0.04496  -0.00000  -0.00000   0.13660   0.08718
  14        5S         -0.15207  -0.00000  -0.00000  -0.00604  -0.14855
  15        5PX         0.00000   0.07935   0.00000  -0.00000   0.00000
  16        5PY         0.00000   0.00000   0.00575   0.00000   0.00000
  17        5PZ         0.06287  -0.00000   0.00000   0.00756   0.06083
  18        6D 0        0.00165  -0.00000  -0.00000  -0.01082  -0.00423
  19        6D+1        0.00000  -0.00449   0.00000  -0.00000  -0.00000
  20        6D-1        0.00000   0.00000  -0.00621  -0.00000  -0.00000
  21        6D+2       -0.00232  -0.00000   0.00000  -0.00035  -0.00201
  22        6D-2        0.00000  -0.00000  -0.00000   0.00000   0.00000
  23        7D 0        0.00755   0.00000   0.00000  -0.01939  -0.00322
  24        7D+1        0.00000  -0.01290   0.00000  -0.00000   0.00000
  25        7D-1        0.00000   0.00000  -0.02397  -0.00000  -0.00000
  26        7D+2       -0.00779  -0.00000   0.00000  -0.00070  -0.00645
  27        7D-2        0.00000  -0.00000  -0.00000   0.00000   0.00000
  28 2   O  1S          0.00347   0.00000   0.00000   0.01914   0.03579
  29        2S          0.00722   0.00000   0.00000   0.03022   0.05702
  30        2PX         0.00000  -0.04340   0.00000  -0.00000   0.00000
  31        2PY         0.00000   0.00000   0.13198  -0.00000   0.00000
  32        2PZ         0.06665  -0.00000  -0.00000  -0.14676   0.00597
  33        3S         -0.03737  -0.00000  -0.00000  -0.09015  -0.17653
  34        3PX         0.00000  -0.06062   0.00000  -0.00000  -0.00000
  35        3PY         0.00000   0.00000   0.20081  -0.00000  -0.00000
  36        3PZ         0.09015  -0.00000  -0.00000  -0.22073  -0.00151
  37        4S         -0.17653   0.00000   0.00000   0.00151  -0.23682
  38        4PX        -0.00000  -0.12175   0.00000  -0.00000  -0.00000
  39        4PY        -0.00000   0.00000   0.14703  -0.00000  -0.00000
  40        4PZ        -0.01126  -0.00000  -0.00000  -0.12968  -0.05253
  41        5S          0.15823   0.00000   0.00000   0.05796   0.17259
  42        5PX         0.00000  -0.06467   0.00000   0.00000   0.00000
  43        5PY         0.00000   0.00000   0.00575   0.00000   0.00000
  44        5PZ         0.04845   0.00000   0.00000   0.01539   0.05432
  45        6D 0        0.00935  -0.00000  -0.00000  -0.00923   0.00373
  46        6D+1        0.00000   0.00779   0.00000  -0.00000   0.00000
  47        6D-1        0.00000   0.00000   0.00621  -0.00000   0.00000
  48        6D+2        0.00007   0.00000  -0.00000   0.00014   0.00045
  49        6D-2        0.00000   0.00000   0.00000   0.00000   0.00000
  50        7D 0        0.01252  -0.00000  -0.00000  -0.01837   0.00193
  51        7D+1        0.00000   0.02666   0.00000  -0.00000   0.00000
  52        7D-1        0.00000   0.00000   0.02397  -0.00000   0.00000
  53        7D+2       -0.00069   0.00000  -0.00000   0.00076   0.00087
  54        7D-2        0.00000   0.00000   0.00000   0.00000   0.00000
                          11        12        13        14        15
  11        4PX         0.37405
  12        4PY         0.00000   0.10766
  13        4PZ        -0.00000  -0.00000   0.07819
  14        5S          0.00000   0.00000   0.00842   0.06378
  15        5PX         0.07820   0.00000  -0.00000  -0.00000   0.01996
  16        5PY         0.00000   0.00421  -0.00000  -0.00000   0.00000
  17        5PZ        -0.00000  -0.00000   0.00077  -0.02216  -0.00000
  18        6D 0       -0.00000   0.00000  -0.00532   0.00046  -0.00000
  19        6D+1       -0.00272   0.00000  -0.00000   0.00000   0.00023
  20        6D-1        0.00000  -0.00455  -0.00000   0.00000   0.00000
  21        6D+2       -0.00000   0.00000  -0.00021   0.00044   0.00000
  22        6D-2       -0.00000  -0.00000   0.00000   0.00000   0.00000
  23        7D 0        0.00000   0.00000  -0.00983  -0.00099  -0.00000
  24        7D+1       -0.00718   0.00000  -0.00000  -0.00000   0.00116
  25        7D-1        0.00000  -0.01755   0.00000  -0.00000   0.00000
  26        7D+2       -0.00000   0.00000  -0.00051   0.00134   0.00000
  27        7D-2       -0.00000  -0.00000   0.00000   0.00000   0.00000
  28 2   O  1S         -0.00000  -0.00000  -0.00329  -0.04419   0.00000
  29        2S         -0.00000  -0.00000  -0.00483  -0.06250   0.00000
  30        2PX        -0.08446   0.00000  -0.00000  -0.00000  -0.04414
  31        2PY         0.00000   0.09664  -0.00000  -0.00000   0.00000
  32        2PZ        -0.00000  -0.00000  -0.08704  -0.04217   0.00000
  33        3S          0.00000   0.00000   0.01126   0.15823  -0.00000
  34        3PX        -0.12175   0.00000  -0.00000  -0.00000  -0.06467
  35        3PY         0.00000   0.14703  -0.00000  -0.00000   0.00000
  36        3PZ        -0.00000  -0.00000  -0.12968  -0.05796   0.00000
  37        4S          0.00000   0.00000   0.05253   0.17259  -0.00000
  38        4PX        -0.16650   0.00000   0.00000  -0.00000  -0.06770
  39        4PY         0.00000   0.10766  -0.00000  -0.00000   0.00000
  40        4PZ         0.00000  -0.00000  -0.07676  -0.02136   0.00000
  41        5S          0.00000   0.00000   0.02136  -0.05802   0.00000
  42        5PX        -0.06770   0.00000   0.00000  -0.00000  -0.01943
  43        5PY         0.00000   0.00421  -0.00000  -0.00000   0.00000
  44        5PZ         0.00000  -0.00000   0.00388  -0.02146   0.00000
  45        6D 0       -0.00000  -0.00000  -0.00499  -0.00254  -0.00000
  46        6D+1        0.00606   0.00000  -0.00000  -0.00000   0.00067
  47        6D-1        0.00000   0.00455  -0.00000  -0.00000   0.00000
  48        6D+2        0.00000  -0.00000  -0.00011  -0.00049   0.00000
  49        6D-2        0.00000   0.00000   0.00000   0.00000   0.00000
  50        7D 0       -0.00000  -0.00000  -0.00963  -0.00294  -0.00000
  51        7D+1        0.02112   0.00000  -0.00000  -0.00000   0.00260
  52        7D-1        0.00000   0.01755  -0.00000  -0.00000   0.00000
  53        7D+2        0.00000  -0.00000  -0.00022  -0.00142   0.00000
  54        7D-2        0.00000   0.00000   0.00000   0.00000   0.00000
                          16        17        18        19        20
  16        5PY         0.00016
  17        5PZ         0.00000   0.00802
  18        6D 0        0.00000  -0.00027   0.00053
  19        6D+1        0.00000  -0.00000   0.00000   0.00020
  20        6D-1       -0.00018  -0.00000   0.00000   0.00000   0.00019
  21        6D+2       -0.00000  -0.00019  -0.00000   0.00000  -0.00000
  22        6D-2       -0.00000   0.00000   0.00000   0.00000   0.00000
  23        7D 0        0.00000   0.00015   0.00095   0.00000   0.00000
  24        7D+1        0.00000  -0.00000   0.00000   0.00064   0.00000
  25        7D-1       -0.00069   0.00000   0.00000   0.00000   0.00074
  26        7D+2        0.00000  -0.00058  -0.00003   0.00000  -0.00000
  27        7D-2       -0.00000   0.00000   0.00000   0.00000   0.00000
  28 2   O  1S          0.00000   0.01329  -0.00187  -0.00000  -0.00000
  29        2S          0.00000   0.01890  -0.00307  -0.00000  -0.00000
  30        2PX         0.00000   0.00000   0.00000  -0.00524   0.00000
  31        2PY         0.00378   0.00000   0.00000   0.00000  -0.00408
  32        2PZ         0.00000   0.01144   0.00610   0.00000   0.00000
  33        3S         -0.00000  -0.04845   0.00935   0.00000   0.00000
  34        3PX         0.00000   0.00000   0.00000  -0.00779   0.00000
  35        3PY         0.00575   0.00000   0.00000   0.00000  -0.00621
  36        3PZ         0.00000   0.01539   0.00923   0.00000   0.00000
  37        4S         -0.00000  -0.05432   0.00373   0.00000   0.00000
  38        4PX         0.00000   0.00000   0.00000  -0.00606   0.00000
[...]
  26        7D+2        0.00009
  27        7D-2        0.00000
  28 2   O  1S          1.08490
  29        2S          0.90858
  30        2PX         0.45787
  31        2PY         0.19656
  32        2PZ         0.26383
  33        3S          1.07822
  34        3PX         0.89482
  35        3PY         0.43953
  36        3PZ         0.58776
  37        4S          0.85410
  38        4PX         0.59435
  39        4PY         0.33521
  40        4PZ         0.19943
  41        5S         -0.03956
  42        5PX         0.03329
  43        5PY         0.00967
  44        5PZ         0.04506
  45        6D 0        0.00273
  46        6D+1        0.00107
  47        6D-1        0.00100
  48        6D+2        0.00002
  49        6D-2        0.00000
  50        7D 0        0.01485
  51        7D+1        0.01860
  52        7D-1        0.01802
  53        7D+2        0.00009
  54        7D-2        0.00000
          Condensed to atoms (all electrons):
               1          2
     1  O    7.754645   0.245355
     2  O    0.245355   7.754645
 Mulliken charges:
               1
     1  O   -0.000000
     2  O   -0.000000
 Sum of Mulliken charges =  -0.00000
 Mulliken charges with hydrogens summed into heavy atoms:
               1
     1  O   -0.000000
     2  O   -0.000000
 APT charges:
               1
     1  O   -0.000000
     2  O   -0.000000
 Sum of APT charges =  -0.00000
 APT charges with hydrogens summed into heavy atoms:
               1
     1  O   -0.000000
     2  O   -0.000000
 Electronic spatial extent (au):  <R**2>=             43.3900
 Charge=             -0.0000 electrons
 Dipole moment (field-independent basis, Debye):
    X=             -0.0000    Y=              0.0000    Z=              0.0000  Tot=              0.0000
 Quadrupole moment (field-independent basis, Debye-Ang):
   XX=            -11.0714   YY=             -9.1556   ZZ=            -10.5870
   XY=              0.0000   XZ=              0.0000   YZ=             -0.0000
 Traceless Quadrupole moment (field-independent basis, Debye-Ang):
   XX=             -0.8001   YY=              1.1157   ZZ=             -0.3157
   XY=              0.0000   XZ=              0.0000   YZ=             -0.0000
 Octapole moment (field-independent basis, Debye-Ang**2):
  XXX=             -0.0000  YYY=              0.0000  ZZZ=             -0.0000  XYY=             -0.0000
  XXY=              0.0000  XXZ=              0.0000  XZZ=             -0.0000  YZZ=              0.0000
  YYZ=              0.0000  XYZ=             -0.0000
 Hexadecapole moment (field-independent basis, Debye-Ang**3):
 XXXX=             -8.5758 YYYY=             -6.2269 ZZZZ=            -28.7484 XXXY=              0.0000
 XXXZ=              0.0000 YYYX=              0.0000 YYYZ=             -0.0000 ZZZX=              0.0000
 ZZZY=             -0.0000 XXYY=             -2.4671 XXZZ=             -7.2222 YYZZ=             -5.5533
 XXYZ=             -0.0000 YYXZ=              0.0000 ZZXY=              0.0000
 N-N= 2.828393643781D+01 E-N=-4.120986957024D+02  KE= 1.499181333914D+02
 Symmetry AG   KE= 6.968034839295D+01
 Symmetry B1G  KE= 3.187164423090D-34
 Symmetry B2G  KE= 5.963348064618D+00
 Symmetry B3G  KE= 3.221844111739D-32
 Symmetry AU   KE= 7.224238556638D-34
 Symmetry B1U  KE= 6.510382430373D+01
 Symmetry B2U  KE= 4.532414353512D+00
 Symmetry B3U  KE= 4.638198276565D+00
 There are a total of       45020 grid points.
 ElSum from          density=       15.9999999589
 ElSum from atomic densities=       15.9999999164

 Hirshfeld populations at iteration   1 (CX, CA, CB, DipXYZ):
               1          2          3          4          5          6
     1  O    0.000001   4.000000   4.000000   0.000000   0.000000  -0.099807
     2  O    0.000001   4.000000   4.000000  -0.000000   0.000000   0.099807
       Tot   0.000002   8.000000   8.000000  -0.000000   0.000000   0.000000

 Dip from Atomic Chgs              0.000000   0.000000   0.000000
         Total Dipole             -0.000000   0.000000   0.000000

 Hirshfeld charges, spin densities, dipoles, and CM5 charges using IRadAn=      5:
              Q-H        S-H        Dx         Dy         Dz        Q-CM5   
     1  O    0.000000   0.000000   0.000000   0.000000  -0.099807   0.000000
     2  O    0.000000   0.000000  -0.000000   0.000000   0.099807   0.000000
       Tot   0.000000   0.000000  -0.000000   0.000000   0.000000   0.000000
 Hirshfeld charges with hydrogens summed into heavy atoms:
              Q-H       Q-CM5   
     1  O    0.000000   0.000000
     2  O    0.000000   0.000000
 
 EQQ= 0.000000000000E+00 EQD= 0.000000000000E+00 EDD=-0.859800434443E-03
 EQQ+QD+DD=-0.859800434443E-03
 
 Orbital energies and kinetic energies (alpha):
                                 1                 2
   1         (SGG)--O        -19.411921         29.154140
   2         (SGU)--O        -19.411625         29.154269
   3         (SGG)--O         -1.406737          2.956879
   4         (SGU)--O         -0.903830          3.397643
   5         (SGG)--O         -0.637534          2.729155
   6         (PIU)--O         -0.620973          2.266207
   7         (PIU)--O         -0.618510          2.319099
   8         (PIG)--O         -0.344870          2.981674
   9         (PIG)--V         -0.104414          2.864631
  10         (SGU)--V          0.163500          0.669210
  11         (SGG)--V          0.166581          0.565051
  12         (PIU)--V          0.205781          0.460518
  13         (PIU)--V          0.214107          0.461738
  14         (SGG)--V          0.269993          0.399295
  15         (PIG)--V          0.281112          0.556769
  16         (PIG)--V          0.283811          0.515958
  17         (SGU)--V          0.353838          3.944223
  18         (SGU)--V          0.412554          0.608792
  19         (SGU)--V          0.991174          2.571472
  20         (PIU)--V          1.008386          2.636440
  21         V                 1.015472          2.059557
  22         (PIU)--V          1.026998          2.618628
  23         (PIG)--V          1.094701          2.596965
  24         (PIG)--V          1.104895          2.549538
  25         V                 1.233290          3.860253
  26         V                 1.300811          2.099172
  27         V                 1.305278          2.164799
  28         (PIU)--V          1.368504          2.482422
  29         (PIU)--V          1.395704          2.476498
  30         V                 1.572052          4.333528
  31         V                 1.713857          2.533911
  32         V                 1.716128          2.542086
  33         (SGG)--V          2.310409          4.179461
  34         (PIG)--V          2.312956          3.193203
  35         (PIG)--V          2.340840          3.194243
  36         (SGU)--V          2.580489          4.176058
  37         (PIU)--V          4.817064         11.672709
  38         (PIU)--V          4.840994         11.642941
  39         (SGG)--V          4.847681         11.991928
  40         (PIG)--V          5.073511         11.880325
  41         (PIG)--V          5.099044         11.850241
  42         (SGU)--V          6.297734         12.766050
  43         V                 6.627759         10.081561
  44         V                 6.630011         10.082514
  45         V                 6.753316         10.181569
  46         V                 6.755832         10.184020
  47         (PIU)--V          6.812383         10.262982
  48         (PIU)--V          6.845084         10.262373
  49         (PIG)--V          6.864455         10.329911
  50         (PIG)--V          6.894916         10.330150
  51         V                 6.979682         10.427686
  52         V                 7.216123         10.952430
  53         (SGG)--V         49.806283        123.804856
  54         (SGU)--V         49.868113        123.649249
 Total kinetic energy from orbitals= 1.499181333914D+02
  Exact polarizability:   6.443   0.000   5.763  -0.000  -0.000  13.278
 Approx polarizability:   5.953  -0.000   6.549  -0.000  -0.000  17.845
 No NMR shielding tensors so no spin-rotation constants.
 Leave Link  601 at Fri Sep  6 10:00:41 2024, MaxMem=   104857600 cpu:               0.1 elap:               0.1
 (Enter /Users/asuyarger/Applications/G16/g16/l701.exe)
 ... and contract with generalized density number  0.
 Compute integral second derivatives.
 R6Disp: Adding Grimme-D2 dispersion energy 2nd derivatives to the Hessian.
 Leave Link  701 at Fri Sep  6 10:00:41 2024, MaxMem=   104857600 cpu:               0.0 elap:               0.1
 (Enter /Users/asuyarger/Applications/G16/g16/l702.exe)
 L702 exits ... SP integral derivatives will be done elsewhere.
 Leave Link  702 at Fri Sep  6 10:00:42 2024, MaxMem=   104857600 cpu:               0.0 elap:               0.0
 (Enter /Users/asuyarger/Applications/G16/g16/l703.exe)
 Integral derivatives from FoFJK, PRISM(SPDF).
 Compute integral second derivatives, UseDBF=F ICtDFT=           0.
 Calling FoFJK, ICntrl=    100127 FMM=F ISym2X=1 I1Cent= 0 IOpClX= 0 NMat=1 NMatS=1 NMatT=0.
 FoFJK:  IHMeth= 1 ICntrl=  100127 DoSepK=T KAlg= 0 I1Cent=           0 FoldK=F
 IRaf=         1 NMat=       1 IRICut=       1 DoRegI=T DoRafI=F ISym2E= 1 IDoP0=0 IntGTp=1.
 FoFCou: FMM=F IPFlag=           0 FMFlag=      100000 FMFlg1=         800
         NFxFlg=           0 DoJE=F BraDBF=F KetDBF=F FulRan=T
         wScrn=  0.000000 ICntrl=    100527 IOpCl=  0 I1Cent=           0 NGrid=           0
         NMat0=    1 NMatS0=      1 NMatT0=    0 NMatD0=    1 NMtDS0=    0 NMtDT0=    0
 Petite list used in FoFCou.
 Leave Link  703 at Fri Sep  6 10:00:42 2024, MaxMem=   104857600 cpu:               0.7 elap:               0.7
 (Enter /Users/asuyarger/Applications/G16/g16/l716.exe)
 Dipole        =-9.86076132D-31 1.09537266D-33 6.66133815D-16
 Polarizability= 6.44260712D+00 8.70779365D-18 5.76296019D+00
                -1.51449432D-15-6.82847307D-32 1.32777033D+01
 HyperPolar    =-1.63127463D-15 8.37586688D-12-3.21323482D-12
                 3.18757492D-12 3.25064969D-11 4.59582886D-12
                -4.07806749D-13 4.84891685D-12 6.18697867D-12
                -2.75351694D-11
 Full mass-weighted force constant matrix:
 Low frequencies ---   -0.0010    0.0007    0.0010   13.1079   13.9706 1701.1064
 Diagonal vibrational polarizability:
        0.0000000       0.0000000       0.0000000
 Diagonal vibrational hyperpolarizability:
        0.0000000       0.0000000       0.0000000
 Harmonic frequencies (cm**-1), IR intensities (KM/Mole), Raman scattering
 activities (A**4/AMU), depolarization ratios for plane and unpolarized
 incident light, reduced masses (AMU), force constants (mDyne/A),
 and normal coordinates:
                      1
                     SGG
 Frequencies --   1701.1064
 Red. masses --     15.9949
 Frc consts  --     27.2706
 IR Inten    --      0.0000
 Raman Activ --     11.4309
 Depolar (P) --      0.2738
 Depolar (U) --      0.4298
  Atom  AN      X      Y      Z
     1   8    -0.00   0.00   0.71
     2   8     0.00   0.00  -0.71

 -------------------
 - Thermochemistry -
 -------------------
 Temperature   298.150 Kelvin.  Pressure   1.00000 Atm.
 Atom     1 has atomic number  8 and mass  15.99491
 Atom     2 has atomic number  8 and mass  15.99491
 Molecular mass:    31.98983 amu.
 Principal axes and moments of inertia in atomic units:
                           1         2         3
     Eigenvalues --     0.00000  40.94795  40.94795
           X           -0.00000   1.00000  -0.00000
           Y            0.00000   0.00000   1.00000
           Z            1.00000   0.00000  -0.00000
 This molecule is a prolate symmetric top.
 Rotational symmetry number  2.
 Rotational temperature (Kelvin)      2.11522
 Rotational constant (GHZ):          44.074033
 Zero-point vibrational energy      10174.9 (Joules/Mol)
                                    2.43185 (Kcal/Mol)
 Vibrational temperatures:   2447.51
          (Kelvin)
 
 Zero-point correction=                           0.003875 (Hartree/Particle)
 Thermal correction to Energy=                    0.006238
 Thermal correction to Enthalpy=                  0.007182
 Thermal correction to Gibbs Free Energy=        -0.015039
 Sum of electronic and zero-point Energies=           -150.257717
 Sum of electronic and thermal Energies=              -150.255355
 Sum of electronic and thermal Enthalpies=            -150.254411
 Sum of electronic and thermal Free Energies=         -150.276632
 
                     E (Thermal)             CV                S
                      KCal/Mol        Cal/Mol-Kelvin    Cal/Mol-Kelvin
 Total                    3.914              5.004             46.769
 Electronic               0.000              0.000              0.000
 Translational            0.889              2.981             36.321
 Rotational               0.592              1.987             10.443
 Vibrational              2.433              0.036              0.005
                       Q            Log10(Q)             Ln(Q)
 Total Bot       0.827138D+07          6.917578         15.928312
 Total V=0       0.501348D+09          8.700139         20.032811
 Vib (Bot)       0.165028D-01         -1.782443         -4.104227
 Vib (V=0)       0.100027D+01          0.000118          0.000272
 Electronic      0.100000D+01          0.000000          0.000000
 Translational   0.711167D+07          6.851972         15.777248
 Rotational      0.704773D+02          1.848049          4.255291
 ***** Axes restored to original set *****
 -------------------------------------------------------------------
 Center     Atomic                   Forces (Hartrees/Bohr)
 Number     Number              X              Y              Z
 -------------------------------------------------------------------
      1        8          -0.000028479    0.000000000   -0.000000000
      2        8           0.000028479   -0.000000000    0.000000000
 -------------------------------------------------------------------
 Cartesian Forces:  Max     0.000028479 RMS     0.000016442
 Force constants in Cartesian coordinates: 
                1             2             3             4             5 
      1  0.875803D+00
      2  0.000000D+00  0.520011D-04
      3  0.000000D+00  0.000000D+00  0.590707D-04
      4 -0.875803D+00  0.000000D+00  0.000000D+00  0.875803D+00
      5  0.000000D+00 -0.520011D-04  0.000000D+00  0.000000D+00  0.520011D-04
      6  0.000000D+00  0.000000D+00 -0.590707D-04  0.000000D+00  0.000000D+00
                6 
      6  0.590707D-04
 FormGI is forming the generalized inverse of G from B-inverse, IUseBI=4.
 Force constants in internal coordinates: 
                1 
      1  0.875803D+00
 Leave Link  716 at Fri Sep  6 10:00:42 2024, MaxMem=   104857600 cpu:               0.0 elap:               0.0
 (Enter /Users/asuyarger/Applications/G16/g16/l103.exe)

 GradGradGradGradGradGradGradGradGradGradGradGradGradGradGradGradGradGrad
 Berny optimization.
 Red2BG is reusing G-inverse.
 Internal  Forces:  Max     0.000028479 RMS     0.000028479
 Search for a local minimum.
 Step number   1 out of a maximum of    2
 All quantities printed in internal units (Hartrees-Bohrs-Radians)
 Second derivative matrix not updated -- analytic derivatives used.
 The second derivative matrix:
                          R1
           R1           0.87580
 ITU=  0
     Eigenvalues ---    0.87580
 Angle between quadratic step and forces=   0.00 degrees.
 Linear search not attempted -- first point.
 Iteration  1 RMS(Cart)=  0.00002299 RMS(Int)=  0.00000000
 Iteration  2 RMS(Cart)=  0.00000000 RMS(Int)=  0.00000000
 ITry= 1 IFail=0 DXMaxC= 1.63D-05 DCOld= 1.00D+10 DXMaxT= 3.00D-01 DXLimC= 3.00D+00 Rises=F
 ClnCor:  largest displacement from symmetrization is 2.22D-16 for atom     2.
 Variable       Old X    -DE/DX   Delta X   Delta X   Delta X     New X
                                 (Linear)    (Quad)   (Total)
    R1        2.26277  -0.00003   0.00000  -0.00003  -0.00003   2.26274
         Item               Value     Threshold  Converged?
 Maximum Force            0.000028     0.000450     YES
 RMS     Force            0.000028     0.000300     YES
 Maximum Displacement     0.000016     0.001800     YES
 RMS     Displacement     0.000023     0.001200     YES
 Predicted change in Energy=-4.630300D-10
 Optimization completed.
    -- Stationary point found.
                           ----------------------------
                           !   Optimized Parameters   !
                           ! (Angstroms and Degrees)  !
 --------------------------                            --------------------------
 ! Name  Definition              Value          Derivative Info.                !
 --------------------------------------------------------------------------------
 ! R1    R(1,2)                  1.1974         -DE/DX =    0.0                 !
 --------------------------------------------------------------------------------
 GradGradGradGradGradGradGradGradGradGradGradGradGradGradGradGradGradGrad

 Leave Link  103 at Fri Sep  6 10:00:42 2024, MaxMem=   104857600 cpu:               0.0 elap:               0.0
 (Enter /Users/asuyarger/Applications/G16/g16/l9999.exe)
 Dipole is zero, so no output in dipole orientation.

 ----------------------------------------------------------------------

 Electric dipole moment (input orientation):
 (Debye = 10**-18 statcoulomb cm , SI units = C m)
                  (au)            (Debye)         (10**-30 SI)
   Tot        0.000000D+00      0.000000D+00      0.000000D+00
   x          0.000000D+00      0.000000D+00      0.000000D+00
   y          0.000000D+00      0.000000D+00      0.000000D+00
   z          0.000000D+00      0.000000D+00      0.000000D+00

 Dipole polarizability, Alpha (input orientation).
 (esu units = cm**3 , SI units = C**2 m**2 J**-1)
 Alpha(0;0):
               (au)            (10**-24 esu)      (10**-40 SI)
   iso        0.849442D+01      0.125874D+01      0.140054D+01
   aniso      0.719902D+01      0.106678D+01      0.118696D+01
   xx         0.132777D+02      0.196755D+01      0.218920D+01
   yx         0.000000D+00      0.000000D+00      0.000000D+00
   yy         0.576296D+01      0.853983D+00      0.950184D+00
   zx         0.000000D+00      0.000000D+00      0.000000D+00
   zy         0.000000D+00      0.000000D+00      0.000000D+00
   zz         0.644261D+01      0.954696D+00      0.106224D+01

 ----------------------------------------------------------------------
 1\1\GINC-JEFFSMACSTUDIO\Freq\RwB97XD\6-311++G(2d,3p)\O2\ROOT\06-Sep-20
 24\0\\#P Geom=AllCheck Guess=TCheck SCRF=Check GenChk RwB97XD/6-311++G
 (2d,3p) Freq\\O2 DFT WB97XD 6-311++g(2d,3p) Opt Freq - Full\\0,1\O,1.5
 694938581,-0.69786534,-0.02031144\O,0.3720883819,-0.69786534,-0.020311
 44\\Version=EM64M-G16RevA.03\HF=-150.2615927\RMSD=4.721e-11\RMSF=1.644
 e-05\ZeroPoint=0.0038754\Thermal=0.006238\Dipole=0.,0.,0.\DipoleDeriv=
 0.,0.,0.,0.,0.,0.,0.,0.,0.,0.,0.,0.,0.,0.,0.,0.,0.,0.\Polar=13.2777033
 ,0.,5.7629602,0.,0.,6.4426071\PolarDeriv=9.6175704,0.,1.3723948,0.,0.,
 -0.2087009,0.,3.3211726,0.,0.,0.,0.,0.,0.,0.,3.0190472,0.,0.,-9.617570
 4,0.,-1.3723948,0.,0.,0.2087009,0.,-3.3211726,0.,0.,0.,0.,0.,0.,0.,-3.
 0190472,0.,0.\HyperPolar=0.,0.,0.,0.,0.,0.,0.,0.,0.,0.\Quadrupole=-0.2
 34702,0.8295218,-0.5948198,0.,0.,0.\PG=D*H [C*(O1.O1)]\NImag=0\\0.8758
 0285,0.,0.00005200,0.,0.,0.00005907,-0.87580285,0.,0.,0.87580285,0.,-0
 .00005200,0.,0.,0.00005200,0.,0.,-0.00005907,0.,0.,0.00005907\\0.00002
 848,0.,0.,-0.00002848,0.,0.\\\@


 THERE IS MUCH PLEASURE TO BE GAINED FROM USELESS KNOWLEDGE

                                       -- BERTRAND RUSSELL
 Job cpu time:       0 days  0 hours  0 minutes  4.0 seconds.
 Elapsed time:       0 days  0 hours  0 minutes  3.9 seconds.
 File lengths (MBytes):  RWF=      6 Int=      0 D2E=      0 Chk=      1 Scr=      1
 Normal termination of Gaussian 16 at Fri Sep  6 10:00:42 2024.
