 Entering Gaussian System, Link 0=g16
 Input=/Users/asuyarger/Downloads/O2_DFT_WB97XD_apVTZ_Opt_Freq_Full.gjf
 Output=/Users/asuyarger/Downloads/O2_DFT_WB97XD_apVTZ_Opt_Freq_Full.log
 Initial command:
 /Users/asuyarger/Applications/G16/g16/l1.exe "/Users/asuyarger/Applications/G16/scratch/Gau-88541.inp" -scrdir="/Users/asuyarger/Applications/G16/scratch/"
 Entering Link 1 = /Users/asuyarger/Applications/G16/g16/l1.exe PID=     88542.
  
 Copyright (c) 1988,1990,1992,1993,1995,1998,2003,2009,2016,
            Gaussian, Inc.  All Rights Reserved.
  
 This is part of the Gaussian(R) 16 program.  It is based on
 the Gaussian(R) 09 system (copyright 2009, Gaussian, Inc.),
 the Gaussian(R) 03 system (copyright 2003, Gaussian, Inc.),
 the Gaussian(R) 98 system (copyright 1998, Gaussian, Inc.),
 the Gaussian(R) 94 system (copyright 1995, Gaussian, Inc.),
 the Gaussian 92(TM) system (copyright 1992, Gaussian, Inc.),
 the Gaussian 90(TM) system (copyright 1990, Gaussian, Inc.),
 the Gaussian 88(TM) system (copyright 1988, Gaussian, Inc.),
 the Gaussian 86(TM) system (copyright 1986, Carnegie Mellon
 University), and the Gaussian 82(TM) system (copyright 1983,
 Carnegie Mellon University). Gaussian is a federally registered
 trademark of Gaussian, Inc.
  
 This software contains proprietary and confidential information,
 including trade secrets, belonging to Gaussian, Inc.
  
 This software is provided under written license and may be
 used, copied, transmitted, or stored only in accord with that
 written license.
  
 The following legend is applicable only to US Government
 contracts under FAR:
  
                    RESTRICTED RIGHTS LEGEND
  
 Use, reproduction and disclosure by the US Government is
 subject to restrictions as set forth in subparagraphs (a)
 and (c) of the Commercial Computer Software - Restricted
 Rights clause in FAR 52.227-19.
  
 Gaussian, Inc.
 340 Quinnipiac St., Bldg. 40, Wallingford CT 06492
  
  
 ---------------------------------------------------------------
 Warning -- This program may not be used in any manner that
 competes with the business of Gaussian, Inc. or will provide
 assistance to any competitor of Gaussian, Inc.  The licensee
 of this program is prohibited from giving any competitor of
 Gaussian, Inc. access to this program.  By using this program,
 the user acknowledges that Gaussian, Inc. is engaged in the
 business of creating and licensing software in the field of
 computational chemistry and represents and warrants to the
 licensee that it is not a competitor of Gaussian, Inc. and that
 it will not use this program in any manner prohibited above.
 ---------------------------------------------------------------
  

 Cite this work as:
 Gaussian 16, Revision A.03,
 M. J. Frisch, G. W. Trucks, H. B. Schlegel, G. E. Scuseria, 
 M. A. Robb, J. R. Cheeseman, G. Scalmani, V. Barone, 
 G. A. Petersson, H. Nakatsuji, X. Li, M. Caricato, A. V. Marenich, 
 J. Bloino, B. G. Janesko, R. Gomperts, B. Mennucci, H. P. Hratchian, 
 J. V. Ortiz, A. F. Izmaylov, J. L. Sonnenberg, D. Williams-Young, 
 F. Ding, F. Lipparini, F. Egidi, J. Goings, B. Peng, A. Petrone, 
 T. Henderson, D. Ranasinghe, V. G. Zakrzewski, J. Gao, N. Rega, 
 G. Zheng, W. Liang, M. Hada, M. Ehara, K. Toyota, R. Fukuda, 
 J. Hasegawa, M. Ishida, T. Nakajima, Y. Honda, O. Kitao, H. Nakai, 
 T. Vreven, K. Throssell, J. A. Montgomery, Jr., J. E. Peralta, 
 F. Ogliaro, M. J. Bearpark, J. J. Heyd, E. N. Brothers, K. N. Kudin, 
 V. N. Staroverov, T. A. Keith, R. Kobayashi, J. Normand, 
 K. Raghavachari, A. P. Rendell, J. C. Burant, S. S. Iyengar, 
 J. Tomasi, M. Cossi, J. M. Millam, M. Klene, C. Adamo, R. Cammi, 
 J. W. Ochterski, R. L. Martin, K. Morokuma, O. Farkas, 
 J. B. Foresman, and D. J. Fox, Gaussian, Inc., Wallingford CT, 2016.
 
 ******************************************
 Gaussian 16:  EM64M-G16RevA.03 25-Dec-2016
                 6-Sep-2024 
 ******************************************
 %chk=O2_DFT_WB97XD_apVTZ_Opt_Freq_Full.chk
 ----------------------------------------------------------------------
 #p opt freq=raman wb97xd/aug-cc-pvtz guess=save pop=(hirshfeld,full) g
 eom=connectivity polar
 ----------------------------------------------------------------------
 1/18=20,19=15,26=3,38=1,57=2/1,3;
 2/9=110,12=2,17=6,18=5,40=1/2;
 3/5=16,6=1,7=10,11=2,25=1,30=1,71=1,74=-58/1,2,3;
 4//1;
 5/5=2,38=5,98=1/2;
 6/7=3,28=1,79=1/1;
 7//1,2,3,16;
 1/18=20,19=15,26=3/3(2);
 2/9=110/2;
 99//99;
 2/9=110/2;
 3/5=16,6=1,7=10,11=2,25=1,30=1,71=1,74=-58/1,2,3;
 4/5=5,16=3,69=1/1;
 5/5=2,38=5,98=1/2;
 7//1,2,3,16;
 1/18=20,19=15,26=3/3(-5);
 2/9=110/2;
 6/7=3,19=2,28=1,79=1/1;
 99/9=1/99;
 Leave Link    1 at Fri Sep  6 10:01:20 2024, MaxMem=           0 cpu:               0.0 elap:               0.0
 (Enter /Users/asuyarger/Applications/G16/g16/l101.exe)
 -----------------------------------------
 O2 DFT WB97XD aug-cc-pVTZ Opt Freq - Full
 -----------------------------------------
 Symbolic Z-matrix:
 Charge =  0 Multiplicity = 1
 O                     1.55159  -0.69787  -0.02031 
 O                     0.38999  -0.69787  -0.02031 
 
 ITRead=  0  0
 MicOpt= -1 -1
 NAtoms=      2 NQM=        2 NQMF=       0 NMMI=      0 NMMIF=      0
                NMic=       0 NMicF=      0.
                    Isotopes and Nuclear Properties:
 (Nuclear quadrupole moments (NQMom) in fm**2, nuclear magnetic moments (NMagM)
  in nuclear magnetons)

  Atom         1           2
 IAtWgt=          16          16
 AtmWgt=  15.9949146  15.9949146
 NucSpn=           0           0
 AtZEff=  -0.0000000  -0.0000000
 NQMom=    0.0000000   0.0000000
 NMagM=    0.0000000   0.0000000
 AtZNuc=   8.0000000   8.0000000
 Leave Link  101 at Fri Sep  6 10:01:21 2024, MaxMem=   104857600 cpu:               0.1 elap:               0.1
 (Enter /Users/asuyarger/Applications/G16/g16/l103.exe)

 GradGradGradGradGradGradGradGradGradGradGradGradGradGradGradGradGradGrad
 Berny optimization.
 Initialization pass.
                           ----------------------------
                           !    Initial Parameters    !
                           ! (Angstroms and Degrees)  !
 --------------------------                            --------------------------
 ! Name  Definition              Value          Derivative Info.                !
 --------------------------------------------------------------------------------
 ! R1    R(1,2)                  1.1616         estimate D2E/DX2                !
 --------------------------------------------------------------------------------
 Trust Radius=3.00D-01 FncErr=1.00D-07 GrdErr=1.00D-06 EigMax=2.50D+02 EigMin=1.00D-04
 Number of steps in this run=     20 maximum allowed number of steps=    100.
 GradGradGradGradGradGradGradGradGradGradGradGradGradGradGradGradGradGrad

 Leave Link  103 at Fri Sep  6 10:01:21 2024, MaxMem=   104857600 cpu:               0.0 elap:               0.0
 (Enter /Users/asuyarger/Applications/G16/g16/l202.exe)
                          Input orientation:                          
 ---------------------------------------------------------------------
 Center     Atomic      Atomic             Coordinates (Angstroms)
 Number     Number       Type             X           Y           Z
 ---------------------------------------------------------------------
      1          8           0        1.551591   -0.697865   -0.020311
      2          8           0        0.389991   -0.697865   -0.020311
 ---------------------------------------------------------------------
 Stoichiometry    O2
 Framework group  D*H[C*(O.O)]
 Deg. of freedom     1
 Full point group                 D*H     NOp   8
 Largest Abelian subgroup         D2H     NOp   8
 Largest concise Abelian subgroup C2      NOp   2
                         Standard orientation:                         
 ---------------------------------------------------------------------
 Center     Atomic      Atomic             Coordinates (Angstroms)
 Number     Number       Type             X           Y           Z
 ---------------------------------------------------------------------
      1          8           0        0.000000    0.000000    0.580800
      2          8           0        0.000000    0.000000   -0.580800
 ---------------------------------------------------------------------
 Rotational constants (GHZ):           0.0000000          46.8330090          46.8330090
 Leave Link  202 at Fri Sep  6 10:01:21 2024, MaxMem=   104857600 cpu:               0.0 elap:               0.0
 (Enter /Users/asuyarger/Applications/G16/g16/l301.exe)
 Standard basis: Aug-CC-pVTZ (5D, 7F)
 Ernie: Thresh=  0.10000D-02 Tol=  0.10000D-05 Strict=F.
 Ernie:  6 primitive shells out of 60 were deleted.
 There are    24 symmetry adapted cartesian basis functions of AG  symmetry.
 There are     5 symmetry adapted cartesian basis functions of B1G symmetry.
 There are    13 symmetry adapted cartesian basis functions of B2G symmetry.
 There are    13 symmetry adapted cartesian basis functions of B3G symmetry.
 There are     5 symmetry adapted cartesian basis functions of AU  symmetry.
 There are    24 symmetry adapted cartesian basis functions of B1U symmetry.
 There are    13 symmetry adapted cartesian basis functions of B2U symmetry.
 There are    13 symmetry adapted cartesian basis functions of B3U symmetry.
 There are    19 symmetry adapted basis functions of AG  symmetry.
 There are     5 symmetry adapted basis functions of B1G symmetry.
 There are    11 symmetry adapted basis functions of B2G symmetry.
 There are    11 symmetry adapted basis functions of B3G symmetry.
 There are     5 symmetry adapted basis functions of AU  symmetry.
 There are    19 symmetry adapted basis functions of B1U symmetry.
 There are    11 symmetry adapted basis functions of B2U symmetry.
 There are    11 symmetry adapted basis functions of B3U symmetry.
    92 basis functions,   144 primitive gaussians,   110 cartesian basis functions
     8 alpha electrons        8 beta electrons
       nuclear repulsion energy        29.1557691967 Hartrees.
 IExCor= 4639 DFT=T Ex+Corr=wB97XD ExCW=0 ScaHFX=  1.000000
 ScaDFX=  1.000000  1.000000  1.000000  1.000000 ScalE2=  1.000000  1.000000
 IRadAn=      5 IRanWt=     -1 IRanGd=            0 ICorTp=0 IEmpDi=121
 HFx  wShort=  0.000000 wLong=  0.200000 cFull=  0.222036 cShort=  0.000000 cLong=  0.777964
 DFx  wShort=  0.000000 wLong=  0.200000 cFull=  0.000000 cShort=  0.000000 cLong=  1.000000
 NAtoms=    2 NActive=    2 NUniq=    1 SFac= 4.00D+00 NAtFMM=   60 NAOKFM=F Big=F
 Integral buffers will be    131072 words long.
 Raffenetti 2 integral format.
 Two-electron integral symmetry is turned on.
 R6Disp:  Grimme-D2 Dispersion energy=       -0.0000007811 Hartrees.
 Nuclear repulsion after empirical dispersion term =       29.1557684156 Hartrees.
 Leave Link  301 at Fri Sep  6 10:01:21 2024, MaxMem=   104857600 cpu:               0.0 elap:               0.0
 (Enter /Users/asuyarger/Applications/G16/g16/l302.exe)
 NPDir=0 NMtPBC=     1 NCelOv=     1 NCel=       1 NClECP=     1 NCelD=      1
         NCelK=      1 NCelE2=     1 NClLst=     1 CellRange=     0.0.
 One-electron integrals computed using PRISM.
 One-electron integral symmetry used in STVInt
 NBasis=    92 RedAO= T EigKep=  2.08D-04  NBF=    19     5    11    11     5    19    11    11
 NBsUse=    92 1.00D-06 EigRej= -1.00D+00 NBFU=    19     5    11    11     5    19    11    11
 Precomputing XC quadrature grid using
 IXCGrd= 4 IRadAn=           5 IRanWt=          -1 IRanGd=           0 AccXCQ= 0.00D+00.
 Generated NRdTot=       0 NPtTot=           0 NUsed=           0 NTot=          32
 NSgBfM=   110   110   110   110   110 MxSgAt=     2 MxSgA2=     2.
 Leave Link  302 at Fri Sep  6 10:01:21 2024, MaxMem=   104857600 cpu:               0.1 elap:               0.1
 (Enter /Users/asuyarger/Applications/G16/g16/l303.exe)
 DipDrv:  MaxL=1.
 Leave Link  303 at Fri Sep  6 10:01:21 2024, MaxMem=   104857600 cpu:               0.0 elap:               0.0
 (Enter /Users/asuyarger/Applications/G16/g16/l401.exe)
 ExpMin= 5.97D-02 ExpMax= 1.53D+04 ExpMxC= 5.22D+02 IAcc=3 IRadAn=         5 AccDes= 0.00D+00
 Harris functional with IExCor= 4639 and IRadAn=       5 diagonalized for initial guess.
 HarFok:  IExCor= 4639 AccDes= 0.00D+00 IRadAn=         5 IDoV= 1 UseB2=F ITyADJ=14
 ICtDFT=  3500011 ScaDFX=  1.000000  1.000000  1.000000  1.000000
 FoFCou: FMM=F IPFlag=           0 FMFlag=      100000 FMFlg1=           0
         NFxFlg=           0 DoJE=T BraDBF=F KetDBF=T FulRan=T
         wScrn=  0.000000 ICntrl=       500 IOpCl=  0 I1Cent=   200000004 NGrid=           0
         NMat0=    1 NMatS0=      1 NMatT0=    0 NMatD0=    1 NMtDS0=    0 NMtDT0=    0
 Petite list used in FoFCou.
 Harris En= -145.354058301094    
 JPrj=0 DoOrth=F DoCkMO=F.
 Initial guess orbital symmetries:
       Occupied  (SGG) (SGU) (SGG) (SGU) (SGG) (PIU) (PIU) (PIG)
       Virtual   (PIG) (SGU) (SGG) (PIU) (PIU) (SGG) (PIG) (PIG)
                 (SGU) (SGU) (DLTG) (DLTG) (SGG) (PIU) (PIU) (DLTU)
                 (DLTU) (PIG) (PIG) (PIU) (PIU) (SGU) (SGG) (SGU)
                 (PIG) (PIG) (SGG) (DLTG) (DLTG) (PHIU) (PHIU)
                 (PIU) (PIU) (DLTU) (DLTU) (SGG) (DLTG) (DLTG)
                 (PHIG) (PHIG) (PIG) (PIG) (SGU) (SGU) (PIU) (PIU)
                 (DLTU) (DLTU) (SGU) (PIG) (PIG) (SGG) (PIU) (PIU)
                 (SGG) (PIG) (PIG) (PIU) (PIU) (SGG) (DLTG) (DLTG)
                 (SGU) (PHIU) (PHIU) (PHIG) (PHIG) (SGU) (DLTG)
                 (DLTG) (DLTU) (DLTU) (DLTU) (DLTU) (PIU) (PIU)
                 (PIG) (PIG) (PIG) (PIG) (SGG) (SGU) (SGG) (SGU)
 Leave Link  401 at Fri Sep  6 10:01:21 2024, MaxMem=   104857600 cpu:               0.1 elap:               0.1
 (Enter /Users/asuyarger/Applications/G16/g16/l502.exe)
 Keep R1 ints in memory in symmetry-blocked form, NReq=20662687.
 FoFCou: FMM=F IPFlag=           0 FMFlag=           0 FMFlg1=           0
         NFxFlg=           0 DoJE=F BraDBF=F KetDBF=F FulRan=T
         wScrn=  0.000000 ICntrl=       600 IOpCl=  0 I1Cent=           0 NGrid=           0
         NMat0=    1 NMatS0=   4278 NMatT0=    0 NMatD0=    1 NMtDS0=    0 NMtDT0=    0
 Petite list used in FoFCou.
 Closed shell SCF:
 Using DIIS extrapolation, IDIIS=  1040.
 NGot=   104857600 LenX=   103645823 LenY=   103633282
 Requested convergence on RMS density matrix=1.00D-08 within 128 cycles.
 Requested convergence on MAX density matrix=1.00D-06.
 Requested convergence on             energy=1.00D-06.
 No special actions if energy rises.
 Integral accuracy reduced to 1.0D-05 until final iterations.

 Cycle   1  Pass 0  IDiag  1:
 E= -150.120946404277    
 DIIS: error= 7.29D-02 at cycle   1 NSaved=   1.
 NSaved= 1 IEnMin= 1 EnMin= -150.120946404277     IErMin= 1 ErrMin= 7.29D-02
 ErrMax= 7.29D-02  0.00D+00 EMaxC= 1.00D-01 BMatC= 3.70D-01 BMatP= 3.70D-01
 IDIUse=3 WtCom= 2.71D-01 WtEn= 7.29D-01
 Coeff-Com:  0.100D+01
 Coeff-En:   0.100D+01
 Coeff:      0.100D+01
 Gap=     0.228 Goal=   None    Shift=    0.000
 GapD=    0.228 DampG=1.000 DampE=0.500 DampFc=0.5000 IDamp=-1.
 Damping current iteration by 5.00D-01
 RMSDP=6.66D-03 MaxDP=1.23D-01              OVMax= 1.94D-01

 Cycle   2  Pass 0  IDiag  1:
 E= -150.203961082982     Delta-E=       -0.083014678705 Rises=F Damp=T
 DIIS: error= 3.22D-02 at cycle   2 NSaved=   2.
 NSaved= 2 IEnMin= 2 EnMin= -150.203961082982     IErMin= 2 ErrMin= 3.22D-02
 ErrMax= 3.22D-02  0.00D+00 EMaxC= 1.00D-01 BMatC= 4.07D-02 BMatP= 3.70D-01
 IDIUse=3 WtCom= 6.78D-01 WtEn= 3.22D-01
 Coeff-Com: -0.354D+00 0.135D+01
 Coeff-En:   0.000D+00 0.100D+01
 Coeff:     -0.240D+00 0.124D+01
 Gap=     0.242 Goal=   None    Shift=    0.000
 RMSDP=2.58D-03 MaxDP=5.91D-02 DE=-8.30D-02 OVMax= 5.28D-02

 Cycle   3  Pass 0  IDiag  1:
 E= -150.270931638996     Delta-E=       -0.066970556014 Rises=F Damp=F
 DIIS: error= 2.04D-03 at cycle   3 NSaved=   3.
 NSaved= 3 IEnMin= 3 EnMin= -150.270931638996     IErMin= 3 ErrMin= 2.04D-03
 ErrMax= 2.04D-03  0.00D+00 EMaxC= 1.00D-01 BMatC= 8.67D-05 BMatP= 4.07D-02
 IDIUse=3 WtCom= 9.80D-01 WtEn= 2.04D-02
 Coeff-Com:  0.148D-01-0.398D-01 0.102D+01
 Coeff-En:   0.000D+00 0.000D+00 0.100D+01
 Coeff:      0.145D-01-0.390D-01 0.102D+01
 Gap=     0.242 Goal=   None    Shift=    0.000
 RMSDP=5.16D-04 MaxDP=9.92D-03 DE=-6.70D-02 OVMax= 1.10D-02

 Cycle   4  Pass 0  IDiag  1:
 E= -150.271146887798     Delta-E=       -0.000215248802 Rises=F Damp=F
 DIIS: error= 5.43D-04 at cycle   4 NSaved=   4.
 NSaved= 4 IEnMin= 4 EnMin= -150.271146887798     IErMin= 4 ErrMin= 5.43D-04
 ErrMax= 5.43D-04  0.00D+00 EMaxC= 1.00D-01 BMatC= 7.01D-06 BMatP= 8.67D-05
 IDIUse=3 WtCom= 9.95D-01 WtEn= 5.43D-03
 Coeff-Com:  0.402D-02-0.884D-02-0.255D+00 0.126D+01
 Coeff-En:   0.000D+00 0.000D+00 0.000D+00 0.100D+01
 Coeff:      0.399D-02-0.880D-02-0.254D+00 0.126D+01
 Gap=     0.243 Goal=   None    Shift=    0.000
 RMSDP=1.60D-04 MaxDP=3.15D-03 DE=-2.15D-04 OVMax= 3.73D-03

 Cycle   5  Pass 0  IDiag  1:
 E= -150.271164004117     Delta-E=       -0.000017116319 Rises=F Damp=F
 DIIS: error= 7.20D-05 at cycle   5 NSaved=   5.
 NSaved= 5 IEnMin= 5 EnMin= -150.271164004117     IErMin= 5 ErrMin= 7.20D-05
 ErrMax= 7.20D-05  0.00D+00 EMaxC= 1.00D-01 BMatC= 6.54D-08 BMatP= 7.01D-06
 IDIUse=1 WtCom= 1.00D+00 WtEn= 0.00D+00
 Coeff-Com: -0.126D-02 0.289D-02 0.376D-01-0.233D+00 0.119D+01
 Coeff:     -0.126D-02 0.289D-02 0.376D-01-0.233D+00 0.119D+01
 Gap=     0.243 Goal=   None    Shift=    0.000
 RMSDP=1.75D-05 MaxDP=3.00D-04 DE=-1.71D-05 OVMax= 4.09D-04

 Cycle   6  Pass 0  IDiag  1:
 E= -150.271164203519     Delta-E=       -0.000000199402 Rises=F Damp=F
 DIIS: error= 8.30D-06 at cycle   6 NSaved=   6.
 NSaved= 6 IEnMin= 6 EnMin= -150.271164203519     IErMin= 6 ErrMin= 8.30D-06
 ErrMax= 8.30D-06  0.00D+00 EMaxC= 1.00D-01 BMatC= 2.46D-09 BMatP= 6.54D-08
 IDIUse=1 WtCom= 1.00D+00 WtEn= 0.00D+00
 Coeff-Com: -0.206D-03 0.480D-03 0.745D-02-0.494D-01 0.145D+00 0.897D+00
 Coeff:     -0.206D-03 0.480D-03 0.745D-02-0.494D-01 0.145D+00 0.897D+00
 Gap=     0.243 Goal=   None    Shift=    0.000
 RMSDP=1.59D-06 MaxDP=2.95D-05 DE=-1.99D-07 OVMax= 4.39D-05

 Initial convergence to 1.0D-05 achieved.  Increase integral accuracy.
 Cycle   7  Pass 1  IDiag  1:
 E= -150.271161202617     Delta-E=        0.000003000903 Rises=F Damp=F
 DIIS: error= 5.90D-06 at cycle   1 NSaved=   1.
 NSaved= 1 IEnMin= 1 EnMin= -150.271161202617     IErMin= 1 ErrMin= 5.90D-06
 ErrMax= 5.90D-06  0.00D+00 EMaxC= 1.00D-01 BMatC= 5.74D-10 BMatP= 5.74D-10
 IDIUse=1 WtCom= 1.00D+00 WtEn= 0.00D+00
 Coeff-Com:  0.100D+01
 Coeff:      0.100D+01
 Gap=     0.243 Goal=   None    Shift=    0.000
 RMSDP=1.59D-06 MaxDP=2.95D-05 DE= 3.00D-06 OVMax= 1.06D-05

 Cycle   8  Pass 1  IDiag  1:
 E= -150.271161203246     Delta-E=       -0.000000000629 Rises=F Damp=F
 DIIS: error= 7.55D-07 at cycle   2 NSaved=   2.
 NSaved= 2 IEnMin= 2 EnMin= -150.271161203246     IErMin= 2 ErrMin= 7.55D-07
 ErrMax= 7.55D-07  0.00D+00 EMaxC= 1.00D-01 BMatC= 1.89D-11 BMatP= 5.74D-10
 IDIUse=1 WtCom= 1.00D+00 WtEn= 0.00D+00
 Coeff-Com: -0.111D+00 0.111D+01
 Coeff:     -0.111D+00 0.111D+01
 Gap=     0.243 Goal=   None    Shift=    0.000
 RMSDP=2.54D-07 MaxDP=6.40D-06 DE=-6.29D-10 OVMax= 2.71D-06

 Cycle   9  Pass 1  IDiag  1:
 E= -150.271161203281     Delta-E=       -0.000000000035 Rises=F Damp=F
 DIIS: error= 3.05D-07 at cycle   3 NSaved=   3.
 NSaved= 3 IEnMin= 3 EnMin= -150.271161203281     IErMin= 3 ErrMin= 3.05D-07
 ErrMax= 3.05D-07  0.00D+00 EMaxC= 1.00D-01 BMatC= 1.54D-12 BMatP= 1.89D-11
 IDIUse=1 WtCom= 1.00D+00 WtEn= 0.00D+00
 Coeff-Com: -0.354D-01 0.176D+00 0.860D+00
 Coeff:     -0.354D-01 0.176D+00 0.860D+00
 Gap=     0.243 Goal=   None    Shift=    0.000
 RMSDP=3.86D-08 MaxDP=6.97D-07 DE=-3.52D-11 OVMax= 7.65D-07

 Cycle  10  Pass 1  IDiag  1:
 E= -150.271161203282     Delta-E=       -0.000000000002 Rises=F Damp=F
 DIIS: error= 5.78D-08 at cycle   4 NSaved=   4.
 NSaved= 4 IEnMin= 4 EnMin= -150.271161203282     IErMin= 4 ErrMin= 5.78D-08
 ErrMax= 5.78D-08  0.00D+00 EMaxC= 1.00D-01 BMatC= 1.46D-13 BMatP= 1.54D-12
 IDIUse=1 WtCom= 1.00D+00 WtEn= 0.00D+00
 Coeff-Com:  0.345D-02-0.706D-01 0.951D-01 0.972D+00
 Coeff:      0.345D-02-0.706D-01 0.951D-01 0.972D+00
 Gap=     0.243 Goal=   None    Shift=    0.000
 RMSDP=1.01D-08 MaxDP=1.94D-07 DE=-1.56D-12 OVMax= 2.28D-07

 Cycle  11  Pass 1  IDiag  1:
 E= -150.271161203282     Delta-E=       -0.000000000000 Rises=F Damp=F
 DIIS: error= 1.48D-08 at cycle   5 NSaved=   5.
 NSaved= 5 IEnMin= 5 EnMin= -150.271161203282     IErMin= 5 ErrMin= 1.48D-08
 ErrMax= 1.48D-08  0.00D+00 EMaxC= 1.00D-01 BMatC= 8.19D-15 BMatP= 1.46D-13
 IDIUse=1 WtCom= 1.00D+00 WtEn= 0.00D+00
 Coeff-Com:  0.287D-02-0.248D-01-0.219D-01 0.233D+00 0.811D+00
 Coeff:      0.287D-02-0.248D-01-0.219D-01 0.233D+00 0.811D+00
 Gap=     0.243 Goal=   None    Shift=    0.000
 RMSDP=1.96D-09 MaxDP=3.71D-08 DE=-5.68D-14 OVMax= 5.84D-08

 SCF Done:  E(RwB97XD) =  -150.271161203     A.U. after   11 cycles
            NFock= 11  Conv=0.20D-08     -V/T= 2.0041
 KE= 1.496608658662D+02 PE=-4.135554463037D+02 EE= 8.446765081851D+01
 Leave Link  502 at Fri Sep  6 10:01:22 2024, MaxMem=   104857600 cpu:               1.3 elap:               1.3
 (Enter /Users/asuyarger/Applications/G16/g16/l601.exe)
 Copying SCF densities to generalized density rwf, IOpCl= 0 IROHF=0.

 **********************************************************************

            Population analysis using the SCF density.

 **********************************************************************

 Orbital symmetries:
       Occupied  (SGG) (SGU) (SGG) (SGU) (SGG) (PIU) (PIU) (PIG)
       Virtual   (PIG) (SGU) (SGG) (PIU) (PIU) (SGG) (PIG) (PIG)
                 (SGU) (SGU) (?A) (?A) (?A) (PIU) (PIU) (?B) (?B)
                 (PIG) (PIG) (PIU) (PIU) (?B) (SGG) (SGU) (PIG)
                 (PIG) (?C) (?C) (?C) (PHIU) (PHIU) (PIU) (PIU)
                 (?D) (?D) (?E) (?E) (?E) (?F) (?F) (?F) (?D) (?F)
                 (SGU) (PIU) (PIU) (?G) (?G) (?G) (PIG) (PIG) (SGG)
                 (PIU) (PIU) (SGG) (PIG) (PIG) (PIU) (PIU) (?H)
                 (?H) (?H) (SGU) (PHIU) (PHIU) (PHIG) (PHIG) (SGU)
                 (DLTG) (DLTG) (DLTU) (DLTU) (DLTU) (DLTU) (PIU)
                 (PIU) (PIG) (PIG) (PIG) (PIG) (SGG) (SGU) (SGG)
                 (SGU)
 Unable to determine electronic state:  partially filled degenerate orbitals.
 Alpha  occ. eigenvalues --  -19.40973 -19.40934  -1.43218  -0.89063  -0.63909
 Alpha  occ. eigenvalues --   -0.63210  -0.62980  -0.33029
 Alpha virt. eigenvalues --   -0.08767   0.10376   0.13989   0.14930   0.15583
 Alpha virt. eigenvalues --    0.20009   0.20479   0.20724   0.31200   0.41663
 Alpha virt. eigenvalues --    0.52051   0.52072   0.61227   0.70608   0.70723
 Alpha virt. eigenvalues --    0.75797   0.75914   0.76059   0.76292   0.78265
 Alpha virt. eigenvalues --    0.80262   0.80728   0.86645   0.90205   1.09017
 Alpha virt. eigenvalues --    1.09798   1.45117   1.68958   1.69112   1.72033
 Alpha virt. eigenvalues --    1.72051   1.74179   1.76764   2.01121   2.01144
 Alpha virt. eigenvalues --    2.02920   2.06018   2.06674   2.12141   2.12164
 Alpha virt. eigenvalues --    2.16402   2.17219   2.18315   2.39777   2.53919
 Alpha virt. eigenvalues --    2.55692   2.70557   2.70572   2.79241   2.84354
 Alpha virt. eigenvalues --    2.86643   3.27264   3.73223   3.75643   4.13980
 Alpha virt. eigenvalues --    4.67722   4.70563   5.57552   5.60465   5.63066
 Alpha virt. eigenvalues --    5.67258   5.68185   5.90701   5.94266   5.94270
 Alpha virt. eigenvalues --    6.16751   6.16755   6.19788   6.47289   6.47567
 Alpha virt. eigenvalues --    6.60615   6.60925   6.68334   6.68536   6.80025
 Alpha virt. eigenvalues --    6.83422   7.01441   7.04532   7.52317   7.55666
 Alpha virt. eigenvalues --    7.62076   7.93858  12.39891  14.79134
     Molecular Orbital Coefficients:
                           1         2         3         4         5
                       (SGG)--O  (SGU)--O  (SGG)--O  (SGU)--O  (SGG)--O
     Eigenvalues --   -19.40973 -19.40934  -1.43218  -0.89063  -0.63909
   1 1   O  1S          0.68879   0.68844  -0.14947  -0.15776  -0.05665
   2        2S         -0.00501  -0.00756   0.33940   0.38721   0.13896
   3        3S          0.03544   0.03540   0.09998   0.11845   0.04296
   4        4S          0.00187  -0.00450   0.14223   0.46039   0.21008
   5        5S         -0.00079  -0.00671   0.00013   0.09614   0.02821
   6        6PX         0.00000   0.00000   0.00000   0.00000   0.00000
   7        6PY         0.00000   0.00000   0.00000   0.00000   0.00000
   8        6PZ        -0.00160  -0.00132  -0.10777   0.08688   0.26450
   9        7PX         0.00000   0.00000   0.00000   0.00000   0.00000
  10        7PY         0.00000   0.00000   0.00000   0.00000   0.00000
  11        7PZ        -0.00039   0.00165  -0.12037   0.08374   0.30761
  12        8PX         0.00000   0.00000   0.00000   0.00000   0.00000
  13        8PY         0.00000   0.00000   0.00000   0.00000   0.00000
  14        8PZ         0.00216   0.00404  -0.02594  -0.04963   0.15397
  15        9PX         0.00000   0.00000   0.00000   0.00000   0.00000
  16        9PY         0.00000   0.00000   0.00000   0.00000   0.00000
  17        9PZ         0.00024   0.00134   0.00338  -0.01314   0.00330
  18       10D 0        0.00058   0.00014   0.01088  -0.00433  -0.01210
  19       10D+1        0.00000   0.00000   0.00000   0.00000   0.00000
  20       10D-1        0.00000   0.00000   0.00000   0.00000   0.00000
  21       10D+2       -0.00005  -0.00005  -0.00129  -0.00133  -0.00063
  22       10D-2        0.00000   0.00000   0.00000   0.00000   0.00000
  23       11D 0       -0.00105  -0.00067   0.02084  -0.00134  -0.01831
  24       11D+1        0.00000   0.00000   0.00000   0.00000   0.00000
  25       11D-1        0.00000   0.00000   0.00000   0.00000   0.00000
  26       11D+2        0.00005   0.00008  -0.00387  -0.00405  -0.00194
  27       11D-2        0.00000   0.00000   0.00000   0.00000   0.00000
  28       12D 0       -0.00121  -0.00097   0.00224   0.01768  -0.01070
  29       12D+1        0.00000   0.00000   0.00000   0.00000   0.00000
  30       12D-1        0.00000   0.00000   0.00000   0.00000   0.00000
  31       12D+2       -0.00001  -0.00001  -0.00004   0.00179  -0.00019
  32       12D-2        0.00000   0.00000   0.00000   0.00000   0.00000
  33       13F 0        0.00013  -0.00020  -0.00595   0.00003   0.00642
  34       13F+1        0.00000   0.00000   0.00000   0.00000   0.00000
  35       13F-1        0.00000   0.00000   0.00000   0.00000   0.00000
  36       13F+2        0.00000  -0.00000   0.00090  -0.00067  -0.00186
  37       13F-2        0.00000   0.00000   0.00000   0.00000   0.00000
  38       13F+3        0.00000   0.00000   0.00000   0.00000   0.00000
  39       13F-3        0.00000   0.00000   0.00000   0.00000   0.00000
  40       14F 0        0.00097   0.00011  -0.00269  -0.00117  -0.00007
  41       14F+1        0.00000   0.00000   0.00000   0.00000   0.00000
  42       14F-1        0.00000   0.00000   0.00000   0.00000   0.00000
  43       14F+2        0.00001  -0.00001   0.00104   0.00025  -0.00060
  44       14F-2        0.00000   0.00000   0.00000   0.00000   0.00000
  45       14F+3        0.00000   0.00000   0.00000   0.00000   0.00000
  46       14F-3        0.00000   0.00000   0.00000   0.00000   0.00000
  47 2   O  1S          0.68879  -0.68844  -0.14947   0.15776  -0.05665
  48        2S         -0.00501   0.00756   0.33940  -0.38721   0.13896
  49        3S          0.03544  -0.03540   0.09998  -0.11845   0.04296
  50        4S          0.00187   0.00450   0.14223  -0.46039   0.21008
  51        5S         -0.00079   0.00671   0.00013  -0.09614   0.02821
  52        6PX         0.00000   0.00000   0.00000   0.00000   0.00000
  53        6PY         0.00000   0.00000   0.00000   0.00000   0.00000
  54        6PZ         0.00160  -0.00132   0.10777   0.08688  -0.26450
  55        7PX         0.00000   0.00000   0.00000   0.00000   0.00000
  56        7PY         0.00000   0.00000   0.00000   0.00000   0.00000
  57        7PZ         0.00039   0.00165   0.12037   0.08374  -0.30761
  58        8PX         0.00000   0.00000   0.00000   0.00000   0.00000
  59        8PY         0.00000   0.00000   0.00000   0.00000   0.00000
  60        8PZ        -0.00216   0.00404   0.02594  -0.04963  -0.15397
  61        9PX         0.00000   0.00000   0.00000   0.00000   0.00000
  62        9PY         0.00000   0.00000   0.00000   0.00000   0.00000
  63        9PZ        -0.00024   0.00134  -0.00338  -0.01314  -0.00330
  64       10D 0        0.00058  -0.00014   0.01088   0.00433  -0.01210
  65       10D+1        0.00000   0.00000   0.00000   0.00000   0.00000
  66       10D-1        0.00000   0.00000   0.00000   0.00000   0.00000
  67       10D+2       -0.00005   0.00005  -0.00129   0.00133  -0.00063
  68       10D-2        0.00000   0.00000   0.00000   0.00000   0.00000
  69       11D 0       -0.00105   0.00067   0.02084   0.00134  -0.01831
  70       11D+1        0.00000   0.00000   0.00000   0.00000   0.00000
  71       11D-1        0.00000   0.00000   0.00000   0.00000   0.00000
  72       11D+2        0.00005  -0.00008  -0.00387   0.00405  -0.00194
  73       11D-2        0.00000   0.00000   0.00000   0.00000   0.00000
  74       12D 0       -0.00121   0.00097   0.00224  -0.01768  -0.01070
  75       12D+1        0.00000   0.00000   0.00000   0.00000   0.00000
  76       12D-1        0.00000   0.00000   0.00000   0.00000   0.00000
  77       12D+2       -0.00001   0.00001  -0.00004  -0.00179  -0.00019
  78       12D-2        0.00000   0.00000   0.00000   0.00000   0.00000
  79       13F 0       -0.00013  -0.00020   0.00595   0.00003  -0.00642
  80       13F+1        0.00000   0.00000   0.00000   0.00000   0.00000
  81       13F-1        0.00000   0.00000   0.00000   0.00000   0.00000
  82       13F+2       -0.00000  -0.00000  -0.00090  -0.00067   0.00186
  83       13F-2        0.00000   0.00000   0.00000   0.00000   0.00000
  84       13F+3        0.00000   0.00000   0.00000   0.00000   0.00000
  85       13F-3        0.00000   0.00000   0.00000   0.00000   0.00000
  86       14F 0       -0.00097   0.00011   0.00269  -0.00117   0.00007
  87       14F+1        0.00000   0.00000   0.00000   0.00000   0.00000
  88       14F-1        0.00000   0.00000   0.00000   0.00000   0.00000
  89       14F+2       -0.00001  -0.00001  -0.00104   0.00025   0.00060
  90       14F-2        0.00000   0.00000   0.00000   0.00000   0.00000
  91       14F+3        0.00000   0.00000   0.00000   0.00000   0.00000
  92       14F-3        0.00000   0.00000   0.00000   0.00000   0.00000
                           6         7         8         9        10
                       (PIU)--O  (PIU)--O  (PIG)--O  (PIG)--V  (SGU)--V
     Eigenvalues --    -0.63210  -0.62980  -0.33029  -0.08767   0.10376
   1 1   O  1S          0.00000   0.00000   0.00000   0.00000  -0.03045
   2        2S          0.00000   0.00000   0.00000   0.00000   0.04532
   3        3S          0.00000   0.00000   0.00000   0.00000   0.01176
   4        4S          0.00000   0.00000   0.00000   0.00000   1.64113
   5        5S          0.00000   0.00000   0.00000   0.00000   7.75793
   6        6PX         0.00000   0.26290   0.30361   0.00000   0.00000
   7        6PY         0.25654   0.00000   0.00000   0.29346   0.00000
   8        6PZ         0.00000   0.00000   0.00000   0.00000  -0.00863
   9        7PX         0.00000   0.31754   0.36606   0.00000   0.00000
  10        7PY         0.31737   0.00000   0.00000   0.36170   0.00000
  11        7PZ         0.00000   0.00000   0.00000   0.00000  -0.06933
  12        8PX         0.00000   0.17811   0.33013   0.00000   0.00000
  13        8PY         0.17776   0.00000   0.00000   0.33926   0.00000
  14        8PZ         0.00000   0.00000   0.00000   0.00000  -1.32390
  15        9PX         0.00000   0.00604   0.08674   0.00000   0.00000
  16        9PY         0.00549   0.00000   0.00000   0.14671   0.00000
  17        9PZ         0.00000   0.00000   0.00000   0.00000  -2.56881
  18       10D 0        0.00000   0.00000   0.00000   0.00000  -0.00338
  19       10D+1        0.00000  -0.01055   0.00195   0.00000   0.00000
  20       10D-1       -0.01107   0.00000   0.00000   0.00242   0.00000
  21       10D+2        0.00000   0.00000   0.00000   0.00000  -0.00037
  22       10D-2        0.00000   0.00000   0.00000   0.00000   0.00000
  23       11D 0        0.00000   0.00000   0.00000   0.00000   0.03723
  24       11D+1        0.00000  -0.02693   0.01283   0.00000   0.00000
  25       11D-1       -0.03113   0.00000   0.00000   0.01573   0.00000
  26       11D+2        0.00000   0.00000   0.00000   0.00000  -0.00077
  27       11D-2        0.00000   0.00000   0.00000   0.00000   0.00000
  28       12D 0        0.00000   0.00000   0.00000   0.00000   0.32975
  29       12D+1        0.00000  -0.00196  -0.00282   0.00000   0.00000
  30       12D-1       -0.00981   0.00000   0.00000  -0.00475   0.00000
  31       12D+2        0.00000   0.00000   0.00000   0.00000   0.00029
  32       12D-2        0.00000   0.00000   0.00000   0.00000   0.00000
  33       13F 0        0.00000   0.00000   0.00000   0.00000  -0.00106
  34       13F+1        0.00000   0.00676  -0.00066   0.00000   0.00000
  35       13F-1        0.00594   0.00000   0.00000  -0.00184   0.00000
  36       13F+2        0.00000   0.00000   0.00000   0.00000   0.00021
  37       13F-2        0.00000   0.00000   0.00000   0.00000   0.00000
  38       13F+3        0.00000  -0.00201  -0.00226   0.00000   0.00000
  39       13F-3       -0.00186   0.00000   0.00000  -0.00210   0.00000
  40       14F 0        0.00000   0.00000   0.00000   0.00000  -0.02755
  41       14F+1        0.00000   0.00172  -0.00297   0.00000   0.00000
  42       14F-1        0.00285   0.00000   0.00000  -0.00427   0.00000
  43       14F+2        0.00000   0.00000   0.00000   0.00000  -0.00036
  44       14F-2        0.00000   0.00000   0.00000   0.00000   0.00000
  45       14F+3        0.00000  -0.00244  -0.00198   0.00000   0.00000
  46       14F-3       -0.00231   0.00000   0.00000  -0.00165   0.00000
  47 2   O  1S          0.00000   0.00000   0.00000   0.00000   0.03045
  48        2S          0.00000   0.00000   0.00000   0.00000  -0.04532
  49        3S          0.00000   0.00000   0.00000   0.00000  -0.01176
  50        4S          0.00000   0.00000   0.00000   0.00000  -1.64113
  51        5S          0.00000   0.00000   0.00000   0.00000  -7.75793
  52        6PX         0.00000   0.26290  -0.30361   0.00000   0.00000
  53        6PY         0.25654   0.00000   0.00000  -0.29346   0.00000
  54        6PZ         0.00000   0.00000   0.00000   0.00000  -0.00863
  55        7PX         0.00000   0.31754  -0.36606   0.00000   0.00000
  56        7PY         0.31737   0.00000   0.00000  -0.36170   0.00000
  57        7PZ         0.00000   0.00000   0.00000   0.00000  -0.06933
  58        8PX         0.00000   0.17811  -0.33013   0.00000   0.00000
  59        8PY         0.17776   0.00000   0.00000  -0.33926   0.00000
  60        8PZ         0.00000   0.00000   0.00000   0.00000  -1.32390
  61        9PX         0.00000   0.00604  -0.08674   0.00000   0.00000
  62        9PY         0.00549   0.00000   0.00000  -0.14671   0.00000
  63        9PZ         0.00000   0.00000   0.00000   0.00000  -2.56881
  64       10D 0        0.00000   0.00000   0.00000   0.00000   0.00338
  65       10D+1        0.00000   0.01055   0.00195   0.00000   0.00000
  66       10D-1        0.01107   0.00000   0.00000   0.00242   0.00000
  67       10D+2        0.00000   0.00000   0.00000   0.00000   0.00037
  68       10D-2        0.00000   0.00000   0.00000   0.00000   0.00000
  69       11D 0        0.00000   0.00000   0.00000   0.00000  -0.03723
  70       11D+1        0.00000   0.02693   0.01283   0.00000   0.00000
  71       11D-1        0.03113   0.00000   0.00000   0.01573   0.00000
  72       11D+2        0.00000   0.00000   0.00000   0.00000   0.00077
  73       11D-2        0.00000   0.00000   0.00000   0.00000   0.00000
  74       12D 0        0.00000   0.00000   0.00000   0.00000  -0.32975
  75       12D+1        0.00000   0.00196  -0.00282   0.00000   0.00000
  76       12D-1        0.00981   0.00000   0.00000  -0.00475   0.00000
  77       12D+2        0.00000   0.00000   0.00000   0.00000  -0.00029
  78       12D-2        0.00000   0.00000   0.00000   0.00000   0.00000
  79       13F 0        0.00000   0.00000   0.00000   0.00000  -0.00106
  80       13F+1        0.00000   0.00676   0.00066   0.00000   0.00000
  81       13F-1        0.00594   0.00000   0.00000   0.00184   0.00000
  82       13F+2        0.00000   0.00000   0.00000   0.00000   0.00021
  83       13F-2        0.00000   0.00000   0.00000   0.00000   0.00000
  84       13F+3        0.00000  -0.00201   0.00226   0.00000   0.00000
  85       13F-3       -0.00186   0.00000   0.00000   0.00210   0.00000
  86       14F 0        0.00000   0.00000   0.00000   0.00000  -0.02755
  87       14F+1        0.00000   0.00172   0.00297   0.00000   0.00000
  88       14F-1        0.00285   0.00000   0.00000   0.00427   0.00000
  89       14F+2        0.00000   0.00000   0.00000   0.00000  -0.00036
  90       14F-2        0.00000   0.00000   0.00000   0.00000   0.00000
  91       14F+3        0.00000  -0.00244   0.00198   0.00000   0.00000
  92       14F-3       -0.00231   0.00000   0.00000   0.00165   0.00000
                          11        12        13        14        15
                       (SGG)--V  (PIU)--V  (PIU)--V  (SGG)--V  (PIG)--V
     Eigenvalues --     0.13989   0.14930   0.15583   0.20009   0.20479
   1 1   O  1S          0.03707   0.00000   0.00000  -0.01838   0.00000
   2        2S         -0.11342   0.00000   0.00000   0.09294   0.00000
   3        3S         -0.04762   0.00000   0.00000   0.03491   0.00000
   4        4S         -0.62141   0.00000   0.00000   0.70268   0.00000
   5        5S          0.97226   0.00000   0.00000  -0.25263   0.00000
   6        6PX         0.00000   0.00000  -0.07200   0.00000   0.00000
   7        6PY         0.00000  -0.07133   0.00000   0.00000  -0.07726
   8        6PZ        -0.05760   0.00000   0.00000  -0.00639   0.00000
   9        7PX         0.00000   0.00000  -0.04956   0.00000   0.00000
  10        7PY         0.00000  -0.05182   0.00000   0.00000  -0.07384
  11        7PZ         0.00260   0.00000   0.00000  -0.05418   0.00000
  12        8PX         0.00000   0.00000  -0.21206   0.00000   0.00000
  13        8PY         0.00000  -0.21180   0.00000   0.00000  -0.01088
  14        8PZ        -0.31625   0.00000   0.00000   0.19952   0.00000
  15        9PX         0.00000   0.00000   0.61579   0.00000   0.00000
  16        9PY         0.00000   0.61565   0.00000   0.00000   2.19461
  17        9PZ         0.64069   0.00000   0.00000   1.59402   0.00000
  18       10D 0       -0.00472   0.00000   0.00000   0.00366   0.00000
  19       10D+1        0.00000   0.00000   0.00312   0.00000   0.00000
  20       10D-1        0.00000   0.00291   0.00000   0.00000  -0.00305
  21       10D+2        0.00024   0.00000   0.00000   0.00023   0.00000
  22       10D-2        0.00000   0.00000   0.00000   0.00000   0.00000
  23       11D 0        0.01633   0.00000   0.00000   0.02903   0.00000
  24       11D+1        0.00000   0.00000   0.01301   0.00000   0.00000
  25       11D-1        0.00000   0.01516   0.00000   0.00000   0.02553
  26       11D+2        0.00159   0.00000   0.00000  -0.00125   0.00000
  27       11D-2        0.00000   0.00000   0.00000   0.00000   0.00000
  28       12D 0        0.10280   0.00000   0.00000  -0.29858   0.00000
  29       12D+1        0.00000   0.00000  -0.01228   0.00000   0.00000
  30       12D-1        0.00000  -0.01838   0.00000   0.00000  -0.21254
  31       12D+2       -0.00638   0.00000   0.00000   0.01158   0.00000
  32       12D-2        0.00000   0.00000   0.00000   0.00000   0.00000
  33       13F 0        0.00334   0.00000   0.00000  -0.00643   0.00000
  34       13F+1        0.00000   0.00000  -0.00360   0.00000   0.00000
  35       13F-1        0.00000  -0.00352   0.00000   0.00000  -0.00321
  36       13F+2        0.00002   0.00000   0.00000   0.00027   0.00000
  37       13F-2        0.00000   0.00000   0.00000   0.00000   0.00000
  38       13F+3        0.00000   0.00000   0.00060   0.00000   0.00000
  39       13F-3        0.00000   0.00054   0.00000   0.00000   0.00047
  40       14F 0       -0.03596   0.00000   0.00000   0.04219   0.00000
  41       14F+1        0.00000   0.00000   0.00327   0.00000   0.00000
  42       14F-1        0.00000   0.00376   0.00000   0.00000   0.01276
  43       14F+2        0.00124   0.00000   0.00000  -0.00135   0.00000
  44       14F-2        0.00000   0.00000   0.00000   0.00000   0.00000
  45       14F+3        0.00000   0.00000  -0.00051   0.00000   0.00000
  46       14F-3        0.00000  -0.00040   0.00000   0.00000   0.00028
  47 2   O  1S          0.03707   0.00000   0.00000  -0.01838   0.00000
  48        2S         -0.11342   0.00000   0.00000   0.09294   0.00000
  49        3S         -0.04762   0.00000   0.00000   0.03491   0.00000
  50        4S         -0.62141   0.00000   0.00000   0.70268   0.00000
  51        5S          0.97226   0.00000   0.00000  -0.25263   0.00000
  52        6PX         0.00000   0.00000  -0.07200   0.00000   0.00000
  53        6PY         0.00000  -0.07133   0.00000   0.00000   0.07726
  54        6PZ         0.05760   0.00000   0.00000   0.00639   0.00000
  55        7PX         0.00000   0.00000  -0.04956   0.00000   0.00000
  56        7PY         0.00000  -0.05182   0.00000   0.00000   0.07384
  57        7PZ        -0.00260   0.00000   0.00000   0.05418   0.00000
  58        8PX         0.00000   0.00000  -0.21206   0.00000   0.00000
  59        8PY         0.00000  -0.21180   0.00000   0.00000   0.01088
  60        8PZ         0.31625   0.00000   0.00000  -0.19952   0.00000
  61        9PX         0.00000   0.00000   0.61579   0.00000   0.00000
  62        9PY         0.00000   0.61565   0.00000   0.00000  -2.19461
  63        9PZ        -0.64069   0.00000   0.00000  -1.59402   0.00000
  64       10D 0       -0.00472   0.00000   0.00000   0.00366   0.00000
  65       10D+1        0.00000   0.00000  -0.00312   0.00000   0.00000
  66       10D-1        0.00000  -0.00291   0.00000   0.00000  -0.00305
  67       10D+2        0.00024   0.00000   0.00000   0.00023   0.00000
  68       10D-2        0.00000   0.00000   0.00000   0.00000   0.00000
  69       11D 0        0.01633   0.00000   0.00000   0.02903   0.00000
  70       11D+1        0.00000   0.00000  -0.01301   0.00000   0.00000
  71       11D-1        0.00000  -0.01516   0.00000   0.00000   0.02553
  72       11D+2        0.00159   0.00000   0.00000  -0.00125   0.00000
  73       11D-2        0.00000   0.00000   0.00000   0.00000   0.00000
  74       12D 0        0.10280   0.00000   0.00000  -0.29858   0.00000
  75       12D+1        0.00000   0.00000   0.01228   0.00000   0.00000
  76       12D-1        0.00000   0.01838   0.00000   0.00000  -0.21254
  77       12D+2       -0.00638   0.00000   0.00000   0.01158   0.00000
  78       12D-2        0.00000   0.00000   0.00000   0.00000   0.00000
  79       13F 0       -0.00334   0.00000   0.00000   0.00643   0.00000
  80       13F+1        0.00000   0.00000  -0.00360   0.00000   0.00000
  81       13F-1        0.00000  -0.00352   0.00000   0.00000   0.00321
  82       13F+2       -0.00002   0.00000   0.00000  -0.00027   0.00000
  83       13F-2        0.00000   0.00000   0.00000   0.00000   0.00000
  84       13F+3        0.00000   0.00000   0.00060   0.00000   0.00000
  85       13F-3        0.00000   0.00054   0.00000   0.00000  -0.00047
  86       14F 0        0.03596   0.00000   0.00000  -0.04219   0.00000
  87       14F+1        0.00000   0.00000   0.00327   0.00000   0.00000
  88       14F-1        0.00000   0.00376   0.00000   0.00000  -0.01276
  89       14F+2       -0.00124   0.00000   0.00000   0.00135   0.00000
  90       14F-2        0.00000   0.00000   0.00000   0.00000   0.00000
  91       14F+3        0.00000   0.00000  -0.00051   0.00000   0.00000
  92       14F-3        0.00000  -0.00040   0.00000   0.00000  -0.00028
                          16        17        18        19        20
                       (PIG)--V  (SGU)--V  (SGU)--V      V         V
     Eigenvalues --     0.20724   0.31200   0.41663   0.52051   0.52072
   1 1   O  1S          0.00000   0.06116  -0.05595   0.00000  -0.00415
   2        2S          0.00000  -0.27772   0.11542   0.00000   0.00587
   3        3S          0.00000  -0.11179   0.02402   0.00000   0.00144
   4        4S          0.00000   3.06361   2.66918   0.00000  -0.15938
   5        5S          0.00000  14.38723   8.67580   0.00000   0.07083
   6        6PX        -0.06892   0.00000   0.00000   0.00000   0.00000
   7        6PY         0.00000   0.00000   0.00000   0.00000   0.00000
   8        6PZ         0.00000   0.12356  -0.28099   0.00000  -0.00704
   9        7PX        -0.06229   0.00000   0.00000   0.00000   0.00000
  10        7PY         0.00000   0.00000   0.00000   0.00000   0.00000
  11        7PZ         0.00000  -0.00285  -0.47116   0.00000   0.00207
  12        8PX        -0.00649   0.00000   0.00000   0.00000   0.00000
  13        8PY         0.00000   0.00000   0.00000   0.00000   0.00000
  14        8PZ         0.00000  -2.81666  -2.59710   0.00000  -0.03668
  15        9PX         2.19263   0.00000   0.00000   0.00000   0.00000
  16        9PY         0.00000   0.00000   0.00000   0.00000   0.00000
  17        9PZ         0.00000  -3.46439  -1.84313   0.00000  -0.13575
  18       10D 0        0.00000   0.00302  -0.02048   0.00000   0.00188
  19       10D+1       -0.00279   0.00000   0.00000   0.00000   0.00000
  20       10D-1        0.00000   0.00000   0.00000   0.00000   0.00000
  21       10D+2        0.00000   0.00095  -0.00047   0.00000   0.02624
  22       10D-2        0.00000   0.00000   0.00000   0.02642   0.00000
  23       11D 0        0.00000   0.17101   0.07284   0.00000   0.00371
  24       11D+1        0.02579   0.00000   0.00000   0.00000   0.00000
  25       11D-1        0.00000   0.00000   0.00000   0.00000   0.00000
  26       11D+2        0.00000   0.00227  -0.00313   0.00000  -0.02750
  27       11D-2        0.00000   0.00000   0.00000  -0.02763   0.00000
  28       12D 0        0.00000   0.75831   0.25986   0.00000   0.11833
  29       12D+1       -0.20425   0.00000   0.00000   0.00000   0.00000
  30       12D-1        0.00000   0.00000   0.00000   0.00000   0.00000
  31       12D+2        0.00000  -0.00043  -0.00583   0.00000   0.56913
  32       12D-2        0.00000   0.00000   0.00000   0.57199   0.00000
  33       13F 0        0.00000  -0.01048  -0.00634   0.00000   0.00127
  34       13F+1       -0.00341   0.00000   0.00000   0.00000   0.00000
  35       13F-1        0.00000   0.00000   0.00000   0.00000   0.00000
  36       13F+2        0.00000  -0.00086   0.00141   0.00000  -0.00581
  37       13F-2        0.00000   0.00000   0.00000  -0.00602   0.00000
  38       13F+3        0.00046   0.00000   0.00000   0.00000   0.00000
  39       13F-3        0.00000   0.00000   0.00000   0.00000   0.00000
  40       14F 0        0.00000  -0.07350  -0.03281   0.00000  -0.01690
  41       14F+1        0.01209   0.00000   0.00000   0.00000   0.00000
  42       14F-1        0.00000   0.00000   0.00000   0.00000   0.00000
  43       14F+2        0.00000  -0.00017   0.00336   0.00000   0.00320
  44       14F-2        0.00000   0.00000   0.00000   0.00398   0.00000
  45       14F+3        0.00012   0.00000   0.00000   0.00000   0.00000
  46       14F-3        0.00000   0.00000   0.00000   0.00000   0.00000
  47 2   O  1S          0.00000  -0.06116   0.05595   0.00000  -0.00415
  48        2S          0.00000   0.27772  -0.11542   0.00000   0.00587
  49        3S          0.00000   0.11179  -0.02402   0.00000   0.00144
  50        4S          0.00000  -3.06361  -2.66918   0.00000  -0.15938
  51        5S          0.00000 -14.38723  -8.67580   0.00000   0.07083
  52        6PX         0.06892   0.00000   0.00000   0.00000   0.00000
  53        6PY         0.00000   0.00000   0.00000   0.00000   0.00000
  54        6PZ         0.00000   0.12356  -0.28099   0.00000   0.00704
  55        7PX         0.06229   0.00000   0.00000   0.00000   0.00000
  56        7PY         0.00000   0.00000   0.00000   0.00000   0.00000
  57        7PZ         0.00000  -0.00285  -0.47116   0.00000  -0.00207
  58        8PX         0.00649   0.00000   0.00000   0.00000   0.00000
  59        8PY         0.00000   0.00000   0.00000   0.00000   0.00000
  60        8PZ         0.00000  -2.81666  -2.59710   0.00000   0.03668
  61        9PX        -2.19263   0.00000   0.00000   0.00000   0.00000
  62        9PY         0.00000   0.00000   0.00000   0.00000   0.00000
  63        9PZ         0.00000  -3.46439  -1.84313   0.00000   0.13575
  64       10D 0        0.00000  -0.00302   0.02048   0.00000   0.00188
  65       10D+1       -0.00279   0.00000   0.00000   0.00000   0.00000
  66       10D-1        0.00000   0.00000   0.00000   0.00000   0.00000
  67       10D+2        0.00000  -0.00095   0.00047   0.00000   0.02624
  68       10D-2        0.00000   0.00000   0.00000   0.02642   0.00000
  69       11D 0        0.00000  -0.17101  -0.07284   0.00000   0.00371
  70       11D+1        0.02579   0.00000   0.00000   0.00000   0.00000
  71       11D-1        0.00000   0.00000   0.00000   0.00000   0.00000
  72       11D+2        0.00000  -0.00227   0.00313   0.00000  -0.02750
  73       11D-2        0.00000   0.00000   0.00000  -0.02763   0.00000
  74       12D 0        0.00000  -0.75831  -0.25986   0.00000   0.11833
  75       12D+1       -0.20425   0.00000   0.00000   0.00000   0.00000
  76       12D-1        0.00000   0.00000   0.00000   0.00000   0.00000
  77       12D+2        0.00000   0.00043   0.00583   0.00000   0.56913
  78       12D-2        0.00000   0.00000   0.00000   0.57199   0.00000
  79       13F 0        0.00000  -0.01048  -0.00634   0.00000  -0.00127
  80       13F+1        0.00341   0.00000   0.00000   0.00000   0.00000
  81       13F-1        0.00000   0.00000   0.00000   0.00000   0.00000
  82       13F+2        0.00000  -0.00086   0.00141   0.00000   0.00581
  83       13F-2        0.00000   0.00000   0.00000   0.00602   0.00000
  84       13F+3       -0.00046   0.00000   0.00000   0.00000   0.00000
  85       13F-3        0.00000   0.00000   0.00000   0.00000   0.00000
  86       14F 0        0.00000  -0.07350  -0.03281   0.00000   0.01690
  87       14F+1       -0.01209   0.00000   0.00000   0.00000   0.00000
  88       14F-1        0.00000   0.00000   0.00000   0.00000   0.00000
  89       14F+2        0.00000  -0.00017   0.00336   0.00000  -0.00320
  90       14F-2        0.00000   0.00000   0.00000  -0.00398   0.00000
  91       14F+3       -0.00012   0.00000   0.00000   0.00000   0.00000
  92       14F-3        0.00000   0.00000   0.00000   0.00000   0.00000
                          21        22        23        24        25
                           V     (PIU)--V  (PIU)--V      V         V
     Eigenvalues --     0.61227   0.70608   0.70723   0.75797   0.75914
   1 1   O  1S          0.04285   0.00000   0.00000   0.00000  -0.00256
   2        2S         -0.00856   0.00000   0.00000   0.00000   0.00876
   3        3S         -0.00297   0.00000   0.00000   0.00000   0.00429
   4        4S          1.55455   0.00000   0.00000   0.00000   0.09732
   5        5S         -0.63561   0.00000   0.00000   0.00000   0.14070
   6        6PX         0.00000   0.00000  -0.06406   0.00000   0.00000
   7        6PY         0.00000  -0.05967   0.00000   0.00000   0.00000
   8        6PZ         0.06805   0.00000   0.00000   0.00000  -0.00814
   9        7PX         0.00000   0.00000  -0.17986   0.00000   0.00000
  10        7PY         0.00000  -0.16720   0.00000   0.00000   0.00000
  11        7PZ        -0.05455   0.00000   0.00000   0.00000  -0.01378
  12        8PX         0.00000   0.00000   0.76544   0.00000   0.00000
  13        8PY         0.00000   0.75567   0.00000   0.00000   0.00000
  14        8PZ         0.47356   0.00000   0.00000   0.00000  -0.05714
  15        9PX         0.00000   0.00000  -0.29292   0.00000   0.00000
  16        9PY         0.00000  -0.28674   0.00000   0.00000   0.00000
  17        9PZ         1.20838   0.00000   0.00000   0.00000  -0.03441
  18       10D 0       -0.02120   0.00000   0.00000   0.00000   0.00013
  19       10D+1        0.00000   0.00000   0.03089   0.00000   0.00000
  20       10D-1        0.00000   0.03057   0.00000   0.00000   0.00000
  21       10D+2        0.00315   0.00000   0.00000   0.00000   0.02515
  22       10D-2        0.00000   0.00000   0.00000   0.02522   0.00000
  23       11D 0       -0.02388   0.00000   0.00000   0.00000  -0.00325
  24       11D+1        0.00000   0.00000  -0.03223   0.00000   0.00000
  25       11D-1        0.00000  -0.02713   0.00000   0.00000   0.00000
  26       11D+2       -0.00589   0.00000   0.00000   0.00000  -0.05531
  27       11D-2        0.00000   0.00000   0.00000  -0.05514   0.00000
  28       12D 0       -1.32295   0.00000   0.00000   0.00000   0.04492
  29       12D+1        0.00000   0.00000   0.76593   0.00000   0.00000
  30       12D-1        0.00000   0.76701   0.00000   0.00000   0.00000
  31       12D+2        0.05640   0.00000   0.00000   0.00000   1.21467
  32       12D-2        0.00000   0.00000   0.00000   1.21446   0.00000
  33       13F 0       -0.00770   0.00000   0.00000   0.00000   0.00132
  34       13F+1        0.00000   0.00000   0.00246   0.00000   0.00000
  35       13F-1        0.00000   0.00314   0.00000   0.00000   0.00000
  36       13F+2       -0.00153   0.00000   0.00000   0.00000   0.01491
  37       13F-2        0.00000   0.00000   0.00000   0.01472   0.00000
  38       13F+3        0.00000   0.00000   0.00027   0.00000   0.00000
  39       13F-3        0.00000   0.00004   0.00000   0.00000   0.00000
  40       14F 0        0.14883   0.00000   0.00000   0.00000  -0.00347
  41       14F+1        0.00000   0.00000  -0.04653   0.00000   0.00000
  42       14F-1        0.00000  -0.04918   0.00000   0.00000   0.00000
  43       14F+2        0.00412   0.00000   0.00000   0.00000  -0.08300
  44       14F-2        0.00000   0.00000   0.00000  -0.08193   0.00000
  45       14F+3        0.00000   0.00000   0.00036   0.00000   0.00000
  46       14F-3        0.00000   0.00116   0.00000   0.00000   0.00000
  47 2   O  1S          0.04285   0.00000   0.00000   0.00000   0.00256
  48        2S         -0.00856   0.00000   0.00000   0.00000  -0.00876
  49        3S         -0.00297   0.00000   0.00000   0.00000  -0.00429
  50        4S          1.55455   0.00000   0.00000   0.00000  -0.09732
  51        5S         -0.63561   0.00000   0.00000   0.00000  -0.14070
  52        6PX         0.00000   0.00000  -0.06406   0.00000   0.00000
  53        6PY         0.00000  -0.05967   0.00000   0.00000   0.00000
  54        6PZ        -0.06805   0.00000   0.00000   0.00000  -0.00814
  55        7PX         0.00000   0.00000  -0.17986   0.00000   0.00000
  56        7PY         0.00000  -0.16720   0.00000   0.00000   0.00000
  57        7PZ         0.05455   0.00000   0.00000   0.00000  -0.01378
  58        8PX         0.00000   0.00000   0.76544   0.00000   0.00000
  59        8PY         0.00000   0.75567   0.00000   0.00000   0.00000
  60        8PZ        -0.47356   0.00000   0.00000   0.00000  -0.05714
  61        9PX         0.00000   0.00000  -0.29292   0.00000   0.00000
  62        9PY         0.00000  -0.28674   0.00000   0.00000   0.00000
  63        9PZ        -1.20838   0.00000   0.00000   0.00000  -0.03441
  64       10D 0       -0.02120   0.00000   0.00000   0.00000  -0.00013
  65       10D+1        0.00000   0.00000  -0.03089   0.00000   0.00000
  66       10D-1        0.00000  -0.03057   0.00000   0.00000   0.00000
  67       10D+2        0.00315   0.00000   0.00000   0.00000  -0.02515
  68       10D-2        0.00000   0.00000   0.00000  -0.02522   0.00000
  69       11D 0       -0.02388   0.00000   0.00000   0.00000   0.00325
  70       11D+1        0.00000   0.00000   0.03223   0.00000   0.00000
  71       11D-1        0.00000   0.02713   0.00000   0.00000   0.00000
  72       11D+2       -0.00589   0.00000   0.00000   0.00000   0.05531
  73       11D-2        0.00000   0.00000   0.00000   0.05514   0.00000
  74       12D 0       -1.32295   0.00000   0.00000   0.00000  -0.04492
  75       12D+1        0.00000   0.00000  -0.76593   0.00000   0.00000
  76       12D-1        0.00000  -0.76701   0.00000   0.00000   0.00000
  77       12D+2        0.05640   0.00000   0.00000   0.00000  -1.21467
  78       12D-2        0.00000   0.00000   0.00000  -1.21446   0.00000
  79       13F 0        0.00770   0.00000   0.00000   0.00000   0.00132
  80       13F+1        0.00000   0.00000   0.00246   0.00000   0.00000
  81       13F-1        0.00000   0.00314   0.00000   0.00000   0.00000
  82       13F+2        0.00153   0.00000   0.00000   0.00000   0.01491
  83       13F-2        0.00000   0.00000   0.00000   0.01472   0.00000
  84       13F+3        0.00000   0.00000   0.00027   0.00000   0.00000
  85       13F-3        0.00000   0.00004   0.00000   0.00000   0.00000
  86       14F 0       -0.14883   0.00000   0.00000   0.00000  -0.00347
  87       14F+1        0.00000   0.00000  -0.04653   0.00000   0.00000
  88       14F-1        0.00000  -0.04918   0.00000   0.00000   0.00000
  89       14F+2       -0.00412   0.00000   0.00000   0.00000  -0.08300
  90       14F-2        0.00000   0.00000   0.00000  -0.08193   0.00000
  91       14F+3        0.00000   0.00000   0.00036   0.00000   0.00000
  92       14F-3        0.00000   0.00116   0.00000   0.00000   0.00000
                          26        27        28        29        30
                       (PIG)--V  (PIG)--V  (PIU)--V  (PIU)--V      V
     Eigenvalues --     0.76059   0.76292   0.78265   0.80262   0.80728
   1 1   O  1S          0.00000   0.00000   0.00000   0.00000  -0.07849
   2        2S          0.00000   0.00000   0.00000   0.00000   0.05694
   3        3S          0.00000   0.00000   0.00000   0.00000   0.02923
   4        4S          0.00000   0.00000   0.00000   0.00000   7.53603
   5        5S          0.00000   0.00000   0.00000   0.00000   9.30637
   6        6PX        -0.15485   0.00000   0.00000  -0.18377   0.00000
   7        6PY         0.00000  -0.15884  -0.18587   0.00000   0.00000
   8        6PZ         0.00000   0.00000   0.00000   0.00000  -0.11026
   9        7PX        -0.31835   0.00000   0.00000  -0.49438   0.00000
  10        7PY         0.00000  -0.32813  -0.50291   0.00000   0.00000
  11        7PZ         0.00000   0.00000   0.00000   0.00000  -0.32597
  12        8PX        -1.71161   0.00000   0.00000   0.65193   0.00000
  13        8PY         0.00000  -1.71958   0.66080   0.00000   0.00000
  14        8PZ         0.00000   0.00000   0.00000   0.00000  -5.20581
  15        9PX        -1.30414   0.00000   0.00000  -0.26849   0.00000
  16        9PY         0.00000  -1.29447  -0.27492   0.00000   0.00000
  17        9PZ         0.00000   0.00000   0.00000   0.00000  -1.98829
  18       10D 0        0.00000   0.00000   0.00000   0.00000   0.00479
  19       10D+1        0.01589   0.00000   0.00000  -0.00989   0.00000
  20       10D-1        0.00000   0.01505  -0.00899   0.00000   0.00000
  21       10D+2        0.00000   0.00000   0.00000   0.00000  -0.00205
  22       10D-2        0.00000   0.00000   0.00000   0.00000   0.00000
  23       11D 0        0.00000   0.00000   0.00000   0.00000   0.03070
  24       11D+1       -0.00755   0.00000   0.00000   0.04384   0.00000
  25       11D-1        0.00000   0.00043   0.04549   0.00000   0.00000
  26       11D+2        0.00000   0.00000   0.00000   0.00000   0.00291
  27       11D-2        0.00000   0.00000   0.00000   0.00000   0.00000
  28       12D 0        0.00000   0.00000   0.00000   0.00000   2.06175
  29       12D+1        1.99350   0.00000   0.00000  -0.39209   0.00000
  30       12D-1        0.00000   1.99308  -0.38474   0.00000   0.00000
  31       12D+2        0.00000   0.00000   0.00000   0.00000  -0.03900
  32       12D-2        0.00000   0.00000   0.00000   0.00000   0.00000
  33       13F 0        0.00000   0.00000   0.00000   0.00000   0.01433
  34       13F+1        0.02041   0.00000   0.00000   0.00198   0.00000
  35       13F-1        0.00000   0.02104   0.00155   0.00000   0.00000
  36       13F+2        0.00000   0.00000   0.00000   0.00000   0.00046
  37       13F-2        0.00000   0.00000   0.00000   0.00000   0.00000
  38       13F+3        0.00106   0.00000   0.00000   0.00230   0.00000
  39       13F-3        0.00000   0.00083   0.00210   0.00000   0.00000
  40       14F 0        0.00000   0.00000   0.00000   0.00000  -0.11357
  41       14F+1       -0.13829   0.00000   0.00000  -0.01992   0.00000
  42       14F-1        0.00000  -0.14337  -0.01775   0.00000   0.00000
  43       14F+2        0.00000   0.00000   0.00000   0.00000   0.00112
  44       14F-2        0.00000   0.00000   0.00000   0.00000   0.00000
  45       14F+3       -0.00132   0.00000   0.00000  -0.00763   0.00000
  46       14F-3        0.00000  -0.00037  -0.00692   0.00000   0.00000
  47 2   O  1S          0.00000   0.00000   0.00000   0.00000   0.07849
  48        2S          0.00000   0.00000   0.00000   0.00000  -0.05694
  49        3S          0.00000   0.00000   0.00000   0.00000  -0.02923
  50        4S          0.00000   0.00000   0.00000   0.00000  -7.53603
  51        5S          0.00000   0.00000   0.00000   0.00000  -9.30637
  52        6PX         0.15485   0.00000   0.00000  -0.18377   0.00000
  53        6PY         0.00000   0.15884  -0.18587   0.00000   0.00000
  54        6PZ         0.00000   0.00000   0.00000   0.00000  -0.11026
  55        7PX         0.31835   0.00000   0.00000  -0.49438   0.00000
  56        7PY         0.00000   0.32813  -0.50291   0.00000   0.00000
  57        7PZ         0.00000   0.00000   0.00000   0.00000  -0.32597
  58        8PX         1.71161   0.00000   0.00000   0.65193   0.00000
  59        8PY         0.00000   1.71958   0.66080   0.00000   0.00000
  60        8PZ         0.00000   0.00000   0.00000   0.00000  -5.20581
  61        9PX         1.30414   0.00000   0.00000  -0.26849   0.00000
  62        9PY         0.00000   1.29447  -0.27492   0.00000   0.00000
  63        9PZ         0.00000   0.00000   0.00000   0.00000  -1.98829
  64       10D 0        0.00000   0.00000   0.00000   0.00000  -0.00479
  65       10D+1        0.01589   0.00000   0.00000   0.00989   0.00000
  66       10D-1        0.00000   0.01505   0.00899   0.00000   0.00000
  67       10D+2        0.00000   0.00000   0.00000   0.00000   0.00205
  68       10D-2        0.00000   0.00000   0.00000   0.00000   0.00000
  69       11D 0        0.00000   0.00000   0.00000   0.00000  -0.03070
  70       11D+1       -0.00755   0.00000   0.00000  -0.04384   0.00000
  71       11D-1        0.00000   0.00043  -0.04549   0.00000   0.00000
  72       11D+2        0.00000   0.00000   0.00000   0.00000  -0.00291
  73       11D-2        0.00000   0.00000   0.00000   0.00000   0.00000
  74       12D 0        0.00000   0.00000   0.00000   0.00000  -2.06175
  75       12D+1        1.99350   0.00000   0.00000   0.39209   0.00000
  76       12D-1        0.00000   1.99308   0.38474   0.00000   0.00000
  77       12D+2        0.00000   0.00000   0.00000   0.00000   0.03900
  78       12D-2        0.00000   0.00000   0.00000   0.00000   0.00000
  79       13F 0        0.00000   0.00000   0.00000   0.00000   0.01433
  80       13F+1       -0.02041   0.00000   0.00000   0.00198   0.00000
  81       13F-1        0.00000  -0.02104   0.00155   0.00000   0.00000
  82       13F+2        0.00000   0.00000   0.00000   0.00000   0.00046
  83       13F-2        0.00000   0.00000   0.00000   0.00000   0.00000
  84       13F+3       -0.00106   0.00000   0.00000   0.00230   0.00000
  85       13F-3        0.00000  -0.00083   0.00210   0.00000   0.00000
  86       14F 0        0.00000   0.00000   0.00000   0.00000  -0.11357
  87       14F+1        0.13829   0.00000   0.00000  -0.01992   0.00000
  88       14F-1        0.00000   0.14337  -0.01775   0.00000   0.00000
  89       14F+2        0.00000   0.00000   0.00000   0.00000   0.00112
  90       14F-2        0.00000   0.00000   0.00000   0.00000   0.00000
  91       14F+3        0.00132   0.00000   0.00000  -0.00763   0.00000
  92       14F-3        0.00000   0.00037  -0.00692   0.00000   0.00000
                          31        32        33        34        35
                       (SGG)--V  (SGU)--V  (PIG)--V  (PIG)--V      V
     Eigenvalues --     0.86645   0.90205   1.09017   1.09798   1.45117
   1 1   O  1S          0.07732  -0.04431   0.00000   0.00000   0.01946
   2        2S         -0.18544  -0.02634   0.00000   0.00000  -0.58996
   3        3S         -0.03389  -0.06769   0.00000   0.00000  -0.16197
   4        4S          2.00172   9.44886   0.00000   0.00000  -0.44517
   5        5S         -0.98175  13.37358   0.00000   0.00000   0.29064
   6        6PX         0.00000   0.00000   0.00000  -0.13057   0.00000
   7        6PY         0.00000   0.00000  -0.13267   0.00000   0.00000
   8        6PZ        -0.11923   0.25483   0.00000   0.00000   0.06339
   9        7PX         0.00000   0.00000   0.00000  -0.32271   0.00000
  10        7PY         0.00000   0.00000  -0.32631   0.00000   0.00000
  11        7PZ        -0.65773  -0.03936   0.00000   0.00000   0.22008
  12        8PX         0.00000   0.00000   0.00000   6.50531   0.00000
  13        8PY         0.00000   0.00000   6.48942   0.00000   0.00000
  14        8PZ         1.92220  -7.81413   0.00000   0.00000  -1.11841
  15        9PX         0.00000   0.00000   0.00000   0.15698   0.00000
  16        9PY         0.00000   0.00000   0.15908   0.00000   0.00000
  17        9PZ        -0.01409  -2.55679   0.00000   0.00000  -0.44512
  18       10D 0        0.03004  -0.01982   0.00000   0.00000   0.00199
  19       10D+1        0.00000   0.00000   0.00000   0.02373   0.00000
  20       10D-1        0.00000   0.00000   0.02327   0.00000   0.00000
  21       10D+2        0.00154  -0.00051   0.00000   0.00000   0.00110
  22       10D-2        0.00000   0.00000   0.00000   0.00000   0.00000
  23       11D 0       -0.10282   0.49245   0.00000   0.00000  -0.23667
  24       11D+1        0.00000   0.00000   0.00000  -0.32058   0.00000
  25       11D-1        0.00000   0.00000  -0.31847   0.00000   0.00000
  26       11D+2       -0.00173   0.00163   0.00000   0.00000  -0.03166
  27       11D-2        0.00000   0.00000   0.00000   0.00000   0.00000
  28       12D 0       -0.92436   1.33389   0.00000   0.00000   1.24633
  29       12D+1        0.00000   0.00000   0.00000  -3.58541   0.00000
  30       12D-1        0.00000   0.00000  -3.58009   0.00000   0.00000
  31       12D+2       -0.00002   0.01408   0.00000   0.00000   0.02718
  32       12D-2        0.00000   0.00000   0.00000   0.00000   0.00000
  33       13F 0       -0.01952  -0.03825   0.00000   0.00000  -0.01653
  34       13F+1        0.00000   0.00000   0.00000  -0.02671   0.00000
  35       13F-1        0.00000   0.00000  -0.02630   0.00000   0.00000
  36       13F+2        0.00035  -0.00075   0.00000   0.00000  -0.00228
  37       13F-2        0.00000   0.00000   0.00000   0.00000   0.00000
  38       13F+3        0.00000   0.00000   0.00000   0.00120   0.00000
  39       13F-3        0.00000   0.00000   0.00095   0.00000   0.00000
  40       14F 0        0.25555  -0.13319   0.00000   0.00000   0.24353
  41       14F+1        0.00000   0.00000   0.00000   0.44734   0.00000
  42       14F-1        0.00000   0.00000   0.44286   0.00000   0.00000
  43       14F+2        0.00004  -0.00111   0.00000   0.00000   0.02495
  44       14F-2        0.00000   0.00000   0.00000   0.00000   0.00000
  45       14F+3        0.00000   0.00000   0.00000  -0.00494   0.00000
  46       14F-3        0.00000   0.00000  -0.00375   0.00000   0.00000
  47 2   O  1S          0.07732   0.04431   0.00000   0.00000   0.01946
  48        2S         -0.18544   0.02634   0.00000   0.00000  -0.58996
  49        3S         -0.03389   0.06769   0.00000   0.00000  -0.16197
  50        4S          2.00172  -9.44886   0.00000   0.00000  -0.44517
  51        5S         -0.98175 -13.37358   0.00000   0.00000   0.29064
  52        6PX         0.00000   0.00000   0.00000   0.13057   0.00000
  53        6PY         0.00000   0.00000   0.13267   0.00000   0.00000
  54        6PZ         0.11923   0.25483   0.00000   0.00000  -0.06339
  55        7PX         0.00000   0.00000   0.00000   0.32271   0.00000
  56        7PY         0.00000   0.00000   0.32631   0.00000   0.00000
  57        7PZ         0.65773  -0.03936   0.00000   0.00000  -0.22008
  58        8PX         0.00000   0.00000   0.00000  -6.50531   0.00000
  59        8PY         0.00000   0.00000  -6.48942   0.00000   0.00000
  60        8PZ        -1.92220  -7.81413   0.00000   0.00000   1.11841
  61        9PX         0.00000   0.00000   0.00000  -0.15698   0.00000
  62        9PY         0.00000   0.00000  -0.15908   0.00000   0.00000
  63        9PZ         0.01409  -2.55679   0.00000   0.00000   0.44512
  64       10D 0        0.03004   0.01982   0.00000   0.00000   0.00199
  65       10D+1        0.00000   0.00000   0.00000   0.02373   0.00000
  66       10D-1        0.00000   0.00000   0.02327   0.00000   0.00000
  67       10D+2        0.00154   0.00051   0.00000   0.00000   0.00110
  68       10D-2        0.00000   0.00000   0.00000   0.00000   0.00000
  69       11D 0       -0.10282  -0.49245   0.00000   0.00000  -0.23667
  70       11D+1        0.00000   0.00000   0.00000  -0.32058   0.00000
  71       11D-1        0.00000   0.00000  -0.31847   0.00000   0.00000
  72       11D+2       -0.00173  -0.00163   0.00000   0.00000  -0.03166
  73       11D-2        0.00000   0.00000   0.00000   0.00000   0.00000
  74       12D 0       -0.92436  -1.33389   0.00000   0.00000   1.24633
  75       12D+1        0.00000   0.00000   0.00000  -3.58541   0.00000
  76       12D-1        0.00000   0.00000  -3.58009   0.00000   0.00000
  77       12D+2       -0.00002  -0.01408   0.00000   0.00000   0.02718
  78       12D-2        0.00000   0.00000   0.00000   0.00000   0.00000
  79       13F 0        0.01952  -0.03825   0.00000   0.00000   0.01653
  80       13F+1        0.00000   0.00000   0.00000   0.02671   0.00000
  81       13F-1        0.00000   0.00000   0.02630   0.00000   0.00000
  82       13F+2       -0.00035  -0.00075   0.00000   0.00000   0.00228
  83       13F-2        0.00000   0.00000   0.00000   0.00000   0.00000
  84       13F+3        0.00000   0.00000   0.00000  -0.00120   0.00000
  85       13F-3        0.00000   0.00000  -0.00095   0.00000   0.00000
  86       14F 0       -0.25555  -0.13319   0.00000   0.00000  -0.24353
  87       14F+1        0.00000   0.00000   0.00000  -0.44734   0.00000
  88       14F-1        0.00000   0.00000  -0.44286   0.00000   0.00000
  89       14F+2       -0.00004  -0.00111   0.00000   0.00000  -0.02495
  90       14F-2        0.00000   0.00000   0.00000   0.00000   0.00000
  91       14F+3        0.00000   0.00000   0.00000   0.00494   0.00000
  92       14F-3        0.00000   0.00000   0.00375   0.00000   0.00000
                          36        37        38        39        40
                           V         V     (PHIU)--  (PHIU)--  (PIU)--V
     Eigenvalues --     1.68958   1.69112   1.72033   1.72051   1.74179
   1 1   O  1S          0.00000   0.00011   0.00000   0.00000   0.00000
   2        2S          0.00000  -0.02922   0.00000   0.00000   0.00000
   3        3S          0.00000  -0.00444   0.00000   0.00000   0.00000
   4        4S          0.00000  -0.00130   0.00000   0.00000   0.00000
   5        5S          0.00000   0.00612   0.00000   0.00000   0.00000
   6        6PX         0.00000   0.00000   0.00165   0.00000   0.00000
   7        6PY         0.00000   0.00000   0.00000   0.00220   0.09094
   8        6PZ         0.00000   0.00220   0.00000   0.00000   0.00000
   9        7PX         0.00000   0.00000  -0.00649   0.00000   0.00000
  10        7PY         0.00000   0.00000   0.00000  -0.00536   0.05814
  11        7PZ         0.00000   0.01368   0.00000   0.00000   0.00000
  12        8PX         0.00000   0.00000   0.00906   0.00000   0.00000
  13        8PY         0.00000   0.00000   0.00000   0.00676  -0.21880
  14        8PZ         0.00000  -0.05034   0.00000   0.00000   0.00000
  15        9PX         0.00000   0.00000  -0.00287   0.00000   0.00000
  16        9PY         0.00000   0.00000   0.00000  -0.00224   0.05487
  17        9PZ         0.00000  -0.00926   0.00000   0.00000   0.00000
  18       10D 0        0.00000   0.00118   0.00000   0.00000   0.00000
  19       10D+1        0.00000   0.00000  -0.00043   0.00000   0.00000
  20       10D-1        0.00000   0.00000   0.00000  -0.00038   0.02785
  21       10D+2        0.00000   0.01084   0.00000   0.00000   0.00000
  22       10D-2        0.01091   0.00000   0.00000   0.00000   0.00000
  23       11D 0        0.00000  -0.00164   0.00000   0.00000   0.00000
  24       11D+1        0.00000   0.00000  -0.00102   0.00000   0.00000
  25       11D-1        0.00000   0.00000   0.00000   0.00181   0.77043
  26       11D+2        0.00000   0.62670   0.00000   0.00000   0.00000
  27       11D-2        0.62671   0.00000   0.00000   0.00000   0.00000
  28       12D 0        0.00000   0.04515   0.00000   0.00000   0.00000
  29       12D+1        0.00000   0.00000  -0.00368   0.00000   0.00000
  30       12D-1        0.00000   0.00000   0.00000  -0.00627  -0.65743
  31       12D+2        0.00000  -0.40052   0.00000   0.00000   0.00000
  32       12D-2       -0.40117   0.00000   0.00000   0.00000   0.00000
  33       13F 0        0.00000  -0.00304   0.00000   0.00000   0.00000
  34       13F+1        0.00000   0.00000   0.00062   0.00000   0.00000
  35       13F-1        0.00000   0.00000   0.00000   0.00065  -0.01767
  36       13F+2        0.00000   0.02650   0.00000   0.00000   0.00000
  37       13F-2        0.02678   0.00000   0.00000   0.00000   0.00000
  38       13F+3        0.00000   0.00000  -0.07584   0.00000   0.00000
  39       13F-3        0.00000   0.00000   0.00000  -0.07583   0.00009
  40       14F 0        0.00000   0.02608   0.00000   0.00000   0.00000
  41       14F+1        0.00000   0.00000  -0.00047   0.00000   0.00000
  42       14F-1        0.00000   0.00000   0.00000  -0.00083   0.10538
  43       14F+2        0.00000  -0.30280   0.00000   0.00000   0.00000
  44       14F-2       -0.30471   0.00000   0.00000   0.00000   0.00000
  45       14F+3        0.00000   0.00000   0.65529   0.00000   0.00000
  46       14F-3        0.00000   0.00000   0.00000   0.65529  -0.00142
  47 2   O  1S          0.00000   0.00011   0.00000   0.00000   0.00000
  48        2S          0.00000  -0.02922   0.00000   0.00000   0.00000
  49        3S          0.00000  -0.00444   0.00000   0.00000   0.00000
  50        4S          0.00000  -0.00130   0.00000   0.00000   0.00000
  51        5S          0.00000   0.00612   0.00000   0.00000   0.00000
  52        6PX         0.00000   0.00000   0.00165   0.00000   0.00000
  53        6PY         0.00000   0.00000   0.00000   0.00220   0.09094
  54        6PZ         0.00000  -0.00220   0.00000   0.00000   0.00000
  55        7PX         0.00000   0.00000  -0.00649   0.00000   0.00000
  56        7PY         0.00000   0.00000   0.00000  -0.00536   0.05814
  57        7PZ         0.00000  -0.01368   0.00000   0.00000   0.00000
  58        8PX         0.00000   0.00000   0.00906   0.00000   0.00000
  59        8PY         0.00000   0.00000   0.00000   0.00676  -0.21880
  60        8PZ         0.00000   0.05034   0.00000   0.00000   0.00000
  61        9PX         0.00000   0.00000  -0.00287   0.00000   0.00000
  62        9PY         0.00000   0.00000   0.00000  -0.00224   0.05487
  63        9PZ         0.00000   0.00926   0.00000   0.00000   0.00000
  64       10D 0        0.00000   0.00118   0.00000   0.00000   0.00000
  65       10D+1        0.00000   0.00000   0.00043   0.00000   0.00000
  66       10D-1        0.00000   0.00000   0.00000   0.00038  -0.02785
  67       10D+2        0.00000   0.01084   0.00000   0.00000   0.00000
  68       10D-2        0.01091   0.00000   0.00000   0.00000   0.00000
  69       11D 0        0.00000  -0.00164   0.00000   0.00000   0.00000
  70       11D+1        0.00000   0.00000   0.00102   0.00000   0.00000
  71       11D-1        0.00000   0.00000   0.00000  -0.00181  -0.77043
  72       11D+2        0.00000   0.62670   0.00000   0.00000   0.00000
  73       11D-2        0.62671   0.00000   0.00000   0.00000   0.00000
  74       12D 0        0.00000   0.04515   0.00000   0.00000   0.00000
  75       12D+1        0.00000   0.00000   0.00368   0.00000   0.00000
  76       12D-1        0.00000   0.00000   0.00000   0.00627   0.65743
  77       12D+2        0.00000  -0.40052   0.00000   0.00000   0.00000
  78       12D-2       -0.40117   0.00000   0.00000   0.00000   0.00000
  79       13F 0        0.00000   0.00304   0.00000   0.00000   0.00000
  80       13F+1        0.00000   0.00000   0.00062   0.00000   0.00000
  81       13F-1        0.00000   0.00000   0.00000   0.00065  -0.01767
  82       13F+2        0.00000  -0.02650   0.00000   0.00000   0.00000
  83       13F-2       -0.02678   0.00000   0.00000   0.00000   0.00000
  84       13F+3        0.00000   0.00000  -0.07584   0.00000   0.00000
  85       13F-3        0.00000   0.00000   0.00000  -0.07583   0.00009
  86       14F 0        0.00000  -0.02608   0.00000   0.00000   0.00000
  87       14F+1        0.00000   0.00000  -0.00047   0.00000   0.00000
  88       14F-1        0.00000   0.00000   0.00000  -0.00083   0.10538
  89       14F+2        0.00000   0.30280   0.00000   0.00000   0.00000
  90       14F-2        0.30471   0.00000   0.00000   0.00000   0.00000
  91       14F+3        0.00000   0.00000   0.65529   0.00000   0.00000
  92       14F-3        0.00000   0.00000   0.00000   0.65529  -0.00142
                          41        42        43        44        45
                       (PIU)--V      V         V         V         V
     Eigenvalues --     1.76764   2.01121   2.01144   2.02920   2.06018
   1 1   O  1S          0.00000   0.00000   0.00479  -0.02413   0.00000
   2        2S          0.00000   0.00000  -0.07194  -0.30545   0.00000
   3        3S          0.00000   0.00000  -0.03468  -0.14180   0.00000
   4        4S          0.00000   0.00000   1.14783  -0.54907   0.00000
   5        5S          0.00000   0.00000   0.68115   0.28830   0.00000
   6        6PX         0.08725   0.00000   0.00000   0.00000   0.00000
   7        6PY         0.00000   0.00000   0.00000   0.00000   0.00000
   8        6PZ         0.00000   0.00000   0.00874  -0.00531   0.00000
   9        7PX         0.04913   0.00000   0.00000   0.00000   0.00000
  10        7PY         0.00000   0.00000   0.00000   0.00000   0.00000
  11        7PZ         0.00000   0.00000  -0.04316  -0.00021   0.00000
  12        8PX        -0.21319   0.00000   0.00000   0.00000   0.00000
  13        8PY         0.00000   0.00000   0.00000   0.00000   0.00000
  14        8PZ         0.00000   0.00000  -0.68065  -0.64624   0.00000
  15        9PX         0.05375   0.00000   0.00000   0.00000   0.00000
  16        9PY         0.00000   0.00000   0.00000   0.00000   0.00000
  17        9PZ         0.00000   0.00000  -0.13280  -0.47764   0.00000
[...]
 Octapole moment (field-independent basis, Debye-Ang**2):
  XXX=             -0.0000  YYY=             -0.0000  ZZZ=             -0.0000  XYY=             -0.0000
  XXY=             -0.0000  XXZ=             -0.0000  XZZ=             -0.0000  YZZ=             -0.0000
  YYZ=             -0.0000  XYZ=              0.0000
 Hexadecapole moment (field-independent basis, Debye-Ang**3):
 XXXX=             -8.7562 YYYY=             -6.3830 ZZZZ=            -28.7302 XXXY=              0.0000
 XXXZ=              0.0000 YYYX=             -0.0000 YYYZ=              0.0000 ZZZX=              0.0000
 ZZZY=              0.0000 XXYY=             -2.5270 XXZZ=             -7.2824 YYZZ=             -5.5655
 XXYZ=              0.0000 YYXZ=              0.0000 ZZXY=              0.0000
 N-N= 2.834006834135D+01 E-N=-4.118690392650D+02  KE= 1.495243399181D+02
 Symmetry AG   KE= 6.948784181687D+01
 Symmetry B1G  KE= 1.078642886748D-33
 Symmetry B2G  KE= 5.960873579575D+00
 Symmetry B3G  KE= 1.303330537720D-18
 Symmetry AU   KE= 2.145487789157D-32
 Symmetry B1U  KE= 6.490188080919D+01
 Symmetry B2U  KE= 4.532581205259D+00
 Symmetry B3U  KE= 4.641162507194D+00
 There are a total of       46228 grid points.
 ElSum from          density=       15.9999999272
 ElSum from atomic densities=       15.9999999187

 Hirshfeld populations at iteration   1 (CX, CA, CB, DipXYZ):
               1          2          3          4          5          6
     1  O    0.000013   4.000000   4.000000  -0.000000  -0.000000  -0.093432
     2  O    0.000013   4.000000   4.000000  -0.000000   0.000000   0.093432
       Tot   0.000027   8.000000   8.000000  -0.000000  -0.000000   0.000000

 Dip from Atomic Chgs              0.000000   0.000000   0.000000
         Total Dipole             -0.000000  -0.000000   0.000000

 Hirshfeld charges, spin densities, dipoles, and CM5 charges using IRadAn=      5:
              Q-H        S-H        Dx         Dy         Dz        Q-CM5   
     1  O    0.000000   0.000000  -0.000000  -0.000000  -0.093432   0.000000
     2  O    0.000000   0.000000  -0.000000   0.000000   0.093432   0.000000
       Tot   0.000000   0.000000  -0.000000  -0.000000   0.000000   0.000000
 Hirshfeld charges with hydrogens summed into heavy atoms:
              Q-H       Q-CM5   
     1  O    0.000000   0.000000
     2  O    0.000000   0.000000
 
 EQQ= 0.000000000000E+00 EQD= 0.000000000000E+00 EDD=-0.757970873261E-03
 EQQ+QD+DD=-0.757970873261E-03
 
 Orbital energies and kinetic energies (alpha):
                                 1                 2
   1 (SGG)--O                -19.413673         29.053746
   2 (SGU)--O                -19.413350         29.049064
   3 (SGG)--O                 -1.403311          2.954283
   4 (SGU)--O                 -0.900875          3.401877
   5 (SGG)--O                 -0.633933          2.735893
   6 (PIU)--O                 -0.618282          2.266291
   7 (PIU)--O                 -0.617380          2.320581
   8 (PIG)--O                 -0.341835          2.980437
   9 (PIG)--V                 -0.099734          2.860746
  10 (SGU)--V                  0.102886          0.234512
  11 (SGG)--V                  0.139728          0.428047
  12 (PIU)--V                  0.150044          0.294968
  13 (PIU)--V                  0.156560          0.294832
  14 (SGG)--V                  0.200200          0.291878
  15 (PIG)--V                  0.204271          0.358619
  16 (PIG)--V                  0.206851          0.322991
  17 (SGU)--V                  0.295714          2.128779
  18 (SGU)--V                  0.385002          2.447390
  19 V                         0.520376          0.700512
  20 V                         0.520636          0.703475
  21 V                         0.617445          1.017428
  22 (PIU)--V                  0.704680          0.946777
  23 (PIU)--V                  0.706767          0.967445
  24 V                         0.755144          0.876057
  25 V                         0.756224          0.879507
  26 (PIG)--V                  0.759645          1.456989
  27 (PIG)--V                  0.761450          1.496039
  28 (PIU)--V                  0.779073          2.011716
  29 V                         0.796387          1.647846
  30 (PIU)--V                  0.798326          1.971020
  31 (SGG)--V                  0.874992          2.165514
  32 (SGU)--V                  0.900681          2.141885
  33 (PIG)--V                  1.088938          1.595560
  34 (PIG)--V                  1.097341          1.581363
  35 V                         1.437423          2.422472
  36 V                         1.694222          2.387908
  37 V                         1.695638          2.387781
  38 (PHIU)--V                 1.723186          2.027443
  39 (PHIU)--V                 1.723350          2.027533
  40 (PIU)--V                  1.732222          2.807120
  41 (PIU)--V                  1.758280          2.799811
  42 V                         2.011779          2.726928
  43 V                         2.011972          2.736424
  44 V                         2.012377          2.793831
  45 V                         2.047214          2.509013
  46 V                         2.053186          2.543134
  47 V                         2.111360          2.401421
  48 V                         2.111545          2.402912
  49 V                         2.146470          2.685226
  50 V                         2.165427          2.682678
  51 V                         2.172380          3.728106
  52 (SGU)--V                  2.449053          4.341045
  53 (PIU)--V                  2.516272          3.106612
  54 (PIU)--V                  2.533921          3.113572
  55 V                         2.673597          3.202929
  56 V                         2.675593          3.126872
  57 V                         2.725293          3.987284
  58 (PIG)--V                  2.862915          4.750687
  59 (PIG)--V                  2.885916          4.750054
  60 (SGG)--V                  3.268943          6.383500
  61 (PIU)--V                  3.733787          9.193782
  62 (PIU)--V                  3.757843          9.160160
  63 (SGG)--V                  4.022307          9.980040
  64 (PIG)--V                  4.582641          9.186809
  65 (PIG)--V                  4.610406          9.163643
  66 (PIU)--V                  5.580790          7.163134
  67 (PIU)--V                  5.609683          7.164325
  68 V                         5.642790          7.958991
  69 V                         5.718666          7.097675
  70 V                         5.724532          7.150091
  71 V                         5.841534          8.988319
  72 (PHIU)--V                 5.957511          7.314997
  73 (PHIU)--V                 5.957553          7.314961
  74 (PHIG)--V                 6.155184          7.530544
  75 (PHIG)--V                 6.155219          7.530524
  76 V                         6.352683         10.864467
  77 (DLTG)--V                 6.467907          9.541925
  78 (DLTG)--V                 6.470631          9.542361
  79 V                         6.582762          8.276666
  80 V                         6.585184          8.261941
  81 V                         6.635679          9.445626
  82 V                         6.638698          9.467455
  83 (PIU)--V                  6.757407          9.736809
  84 (PIU)--V                  6.790919          9.735589
  85 (PIG)--V                  7.030761         10.201560
  86 (PIG)--V                  7.061587         10.198454
  87 (PIG)--V                  7.403836          9.136673
  88 (PIG)--V                  7.437431          9.136782
  89 (SGG)--V                  7.548801         11.562516
  90 (SGU)--V                  7.877851         12.842009
  91 (SGG)--V                 12.152859         34.140034
  92 (SGU)--V                 13.957563         38.311889
 Total kinetic energy from orbitals= 1.495243399181D+02
  Exact polarizability:   8.598   0.000   7.813  -0.000   0.000  14.304
 Approx polarizability:   7.685  -0.000   8.382  -0.000  -0.000  18.734
 No NMR shielding tensors so no spin-rotation constants.
 Leave Link  601 at Fri Sep  6 10:01:41 2024, MaxMem=   104857600 cpu:               0.3 elap:               0.3
 (Enter /Users/asuyarger/Applications/G16/g16/l701.exe)
 ... and contract with generalized density number  0.
 Compute integral second derivatives.
 R6Disp: Adding Grimme-D2 dispersion energy 2nd derivatives to the Hessian.
 Leave Link  701 at Fri Sep  6 10:01:42 2024, MaxMem=   104857600 cpu:               0.1 elap:               0.1
 (Enter /Users/asuyarger/Applications/G16/g16/l702.exe)
 L702 exits ... SP integral derivatives will be done elsewhere.
 Leave Link  702 at Fri Sep  6 10:01:42 2024, MaxMem=   104857600 cpu:               0.0 elap:               0.0
 (Enter /Users/asuyarger/Applications/G16/g16/l703.exe)
 Integral derivatives from FoFJK, PRISM(SPDF).
 Compute integral second derivatives, UseDBF=F ICtDFT=           0.
 Calling FoFJK, ICntrl=    100127 FMM=F ISym2X=1 I1Cent= 0 IOpClX= 0 NMat=1 NMatS=1 NMatT=0.
 FoFJK:  IHMeth= 1 ICntrl=  100127 DoSepK=T KAlg= 0 I1Cent=           0 FoldK=F
 IRaf=         1 NMat=       1 IRICut=       1 DoRegI=T DoRafI=F ISym2E= 1 IDoP0=0 IntGTp=1.
 FoFCou: FMM=F IPFlag=           0 FMFlag=      100000 FMFlg1=         800
         NFxFlg=           0 DoJE=F BraDBF=F KetDBF=F FulRan=T
         wScrn=  0.000000 ICntrl=    100527 IOpCl=  0 I1Cent=           0 NGrid=           0
         NMat0=    1 NMatS0=      1 NMatT0=    0 NMatD0=    1 NMtDS0=    0 NMtDT0=    0
 Petite list used in FoFCou.
 Leave Link  703 at Fri Sep  6 10:01:47 2024, MaxMem=   104857600 cpu:               5.1 elap:               5.1
 (Enter /Users/asuyarger/Applications/G16/g16/l716.exe)
 Dipole        =-5.91645679D-31-4.04445288D-33-4.44089210D-16
 Polarizability= 8.59811304D+00 1.01108709D-17 7.81285574D+00
                -4.00679167D-16 8.83564890D-31 1.43039661D+01
 HyperPolar    =-1.23815951D-10-1.89796066D-11-1.62895424D-11
                -2.39323947D-12 7.20147582D-12 2.91495370D-12
                 5.70928805D-11-1.88566369D-10-4.06957907D-11
                 4.47793469D-11
 Full mass-weighted force constant matrix:
 Low frequencies ---   -0.0025   -0.0008   -0.0003   11.3008   11.3552 1695.2219
 Diagonal vibrational polarizability:
        0.0000000       0.0000000       0.0000000
 Diagonal vibrational hyperpolarizability:
       -0.0000000      -0.0000000      -0.0000000
 Harmonic frequencies (cm**-1), IR intensities (KM/Mole), Raman scattering
 activities (A**4/AMU), depolarization ratios for plane and unpolarized
 incident light, reduced masses (AMU), force constants (mDyne/A),
 and normal coordinates:
                      1
                     SGG
 Frequencies --   1695.2219
 Red. masses --     15.9949
 Frc consts  --     27.0823
 IR Inten    --      0.0000
 Raman Activ --     10.0478
 Depolar (P) --      0.1833
 Depolar (U) --      0.3099
  Atom  AN      X      Y      Z
     1   8    -0.00   0.00   0.71
     2   8     0.00   0.00  -0.71

 -------------------
 - Thermochemistry -
 -------------------
 Temperature   298.150 Kelvin.  Pressure   1.00000 Atm.
 Atom     1 has atomic number  8 and mass  15.99491
 Atom     2 has atomic number  8 and mass  15.99491
 Molecular mass:    31.98983 amu.
 Principal axes and moments of inertia in atomic units:
                           1         2         3
     Eigenvalues --     0.00000  40.78590  40.78590
           X           -0.00000   1.00000  -0.00000
           Y            0.00000   0.00000   1.00000
           Z            1.00000   0.00000  -0.00000
 This molecule is a prolate symmetric top.
 Rotational symmetry number  2.
 Rotational temperature (Kelvin)      2.12362
 Rotational constant (GHZ):          44.249144
 Zero-point vibrational energy      10139.7 (Joules/Mol)
                                    2.42344 (Kcal/Mol)
 Vibrational temperatures:   2439.05
          (Kelvin)
 
 Zero-point correction=                           0.003862 (Hartree/Particle)
 Thermal correction to Energy=                    0.006225
 Thermal correction to Enthalpy=                  0.007169
 Thermal correction to Gibbs Free Energy=        -0.015049
 Sum of electronic and zero-point Energies=           -150.269172
 Sum of electronic and thermal Energies=              -150.266809
 Sum of electronic and thermal Enthalpies=            -150.265865
 Sum of electronic and thermal Free Energies=         -150.288083
 
                     E (Thermal)             CV                S
                      KCal/Mol        Cal/Mol-Kelvin    Cal/Mol-Kelvin
 Total                    3.906              5.005             46.761
 Electronic               0.000              0.000              0.000
 Translational            0.889              2.981             36.321
 Rotational               0.592              1.987             10.435
 Vibrational              2.425              0.037              0.005
                       Q            Log10(Q)             Ln(Q)
 Total Bot       0.835652D+07          6.922026         15.938553
 Total V=0       0.499368D+09          8.698421         20.028854
 Vib (Bot)       0.167389D-01         -1.776273         -4.090020
 Vib (V=0)       0.100028D+01          0.000122          0.000280
 Electronic      0.100000D+01          0.000000          0.000000
 Translational   0.711167D+07          6.851972         15.777248
 Rotational      0.701984D+02          1.846327          4.251325
 ***** Axes restored to original set *****
 -------------------------------------------------------------------
 Center     Atomic                   Forces (Hartrees/Bohr)
 Number     Number              X              Y              Z
 -------------------------------------------------------------------
      1        8          -0.000027649    0.000000000   -0.000000000
      2        8           0.000027649   -0.000000000    0.000000000
 -------------------------------------------------------------------
 Cartesian Forces:  Max     0.000027649 RMS     0.000015963
 Force constants in Cartesian coordinates: 
                1             2             3             4             5 
      1  0.869754D+00
      2  0.000000D+00  0.390244D-04
      3  0.000000D+00  0.000000D+00  0.386511D-04
      4 -0.869754D+00  0.000000D+00  0.000000D+00  0.869754D+00
      5  0.000000D+00 -0.390244D-04  0.000000D+00  0.000000D+00  0.390244D-04
      6  0.000000D+00  0.000000D+00 -0.386511D-04  0.000000D+00  0.000000D+00
                6 
      6  0.386511D-04
 FormGI is forming the generalized inverse of G from B-inverse, IUseBI=4.
 Force constants in internal coordinates: 
                1 
      1  0.869754D+00
 Leave Link  716 at Fri Sep  6 10:01:47 2024, MaxMem=   104857600 cpu:               0.0 elap:               0.0
 (Enter /Users/asuyarger/Applications/G16/g16/l103.exe)

 GradGradGradGradGradGradGradGradGradGradGradGradGradGradGradGradGradGrad
 Berny optimization.
 Red2BG is reusing G-inverse.
 Internal  Forces:  Max     0.000027649 RMS     0.000027649
 Search for a local minimum.
 Step number   1 out of a maximum of    2
 All quantities printed in internal units (Hartrees-Bohrs-Radians)
 Second derivative matrix not updated -- analytic derivatives used.
 The second derivative matrix:
                          R1
           R1           0.86975
 ITU=  0
     Eigenvalues ---    0.86975
 Angle between quadratic step and forces=   0.00 degrees.
 Linear search not attempted -- first point.
 Iteration  1 RMS(Cart)=  0.00002248 RMS(Int)=  0.00000000
 Iteration  2 RMS(Cart)=  0.00000000 RMS(Int)=  0.00000000
 ITry= 1 IFail=0 DXMaxC= 1.59D-05 DCOld= 1.00D+10 DXMaxT= 3.00D-01 DXLimC= 3.00D+00 Rises=F
 ClnCor:  largest displacement from symmetrization is 0.00D+00 for atom     0.
 Variable       Old X    -DE/DX   Delta X   Delta X   Delta X     New X
                                 (Linear)    (Quad)   (Total)
    R1        2.25829  -0.00003   0.00000  -0.00003  -0.00003   2.25825
         Item               Value     Threshold  Converged?
 Maximum Force            0.000028     0.000450     YES
 RMS     Force            0.000028     0.000300     YES
 Maximum Displacement     0.000016     0.001800     YES
 RMS     Displacement     0.000022     0.001200     YES
 Predicted change in Energy=-4.394714D-10
 Optimization completed.
    -- Stationary point found.
                           ----------------------------
                           !   Optimized Parameters   !
                           ! (Angstroms and Degrees)  !
 --------------------------                            --------------------------
 ! Name  Definition              Value          Derivative Info.                !
 --------------------------------------------------------------------------------
 ! R1    R(1,2)                  1.195          -DE/DX =    0.0                 !
 --------------------------------------------------------------------------------
 GradGradGradGradGradGradGradGradGradGradGradGradGradGradGradGradGradGrad

 Leave Link  103 at Fri Sep  6 10:01:47 2024, MaxMem=   104857600 cpu:               0.0 elap:               0.0
 (Enter /Users/asuyarger/Applications/G16/g16/l9999.exe)
 Dipole is zero, so no output in dipole orientation.

 ----------------------------------------------------------------------

 Electric dipole moment (input orientation):
 (Debye = 10**-18 statcoulomb cm , SI units = C m)
                  (au)            (Debye)         (10**-30 SI)
   Tot        0.000000D+00      0.000000D+00      0.000000D+00
   x          0.000000D+00      0.000000D+00      0.000000D+00
   y          0.000000D+00      0.000000D+00      0.000000D+00
   z          0.000000D+00      0.000000D+00      0.000000D+00

 Dipole polarizability, Alpha (input orientation).
 (esu units = cm**3 , SI units = C**2 m**2 J**-1)
 Alpha(0;0):
               (au)            (10**-24 esu)      (10**-40 SI)
   iso        0.102383D+02      0.151716D+01      0.168807D+01
   aniso      0.613628D+01      0.909303D+00      0.101174D+01
   xx         0.143040D+02      0.211963D+01      0.235841D+01
   yx         0.000000D+00      0.000000D+00      0.000000D+00
   yy         0.781286D+01      0.115775D+01      0.128817D+01
   zx         0.000000D+00      0.000000D+00      0.000000D+00
   zy         0.000000D+00      0.000000D+00      0.000000D+00
   zz         0.859811D+01      0.127411D+01      0.141764D+01

 ----------------------------------------------------------------------
 1\1\GINC-JEFFSMACSTUDIO\Freq\RwB97XD\Aug-CC-pVTZ\O2\ROOT\06-Sep-2024\0
 \\#P Geom=AllCheck Guess=TCheck SCRF=Check GenChk RwB97XD/Aug-CC-pVTZ 
 Freq\\O2 DFT WB97XD aug-cc-pVTZ Opt Freq - Full\\0,1\O,1.5683080346,-0
 .69786534,-0.02031144\O,0.3732742054,-0.69786534,-0.02031144\\Version=
 EM64M-G16RevA.03\HF=-150.2730336\RMSD=9.255e-11\RMSF=1.596e-05\ZeroPoi
 nt=0.003862\Thermal=0.0062246\Dipole=0.,0.,0.\DipoleDeriv=0.,0.,0.,0.,
 0.,0.,0.,0.,0.,0.,0.,0.,0.,0.,0.,0.,0.,0.\Polar=14.3039661,0.,7.812855
 7,0.,0.,8.598113\PolarDeriv=8.5452352,0.,2.3667534,0.,0.,0.5274957,0.,
 2.874346,0.,0.,0.,0.,0.,0.,0.,2.5272359,0.,0.,-8.5452352,0.,-2.3667534
 ,0.,0.,-0.5274957,0.,-2.874346,0.,0.,0.,0.,0.,0.,0.,-2.5272359,0.,0.\H
 yperPolar=0.,0.,0.,0.,0.,0.,0.,0.,0.,0.\Quadrupole=-0.2394819,0.799401
 9,-0.55992,0.,0.,0.\PG=D*H [C*(O1.O1)]\NImag=0\\0.86975407,0.,0.000039
 02,0.,0.,0.00003865,-0.86975407,0.,0.,0.86975407,0.,-0.00003902,0.,0.,
 0.00003902,0.,0.,-0.00003865,0.,0.,0.00003865\\0.00002765,0.,0.,-0.000
 02765,0.,0.\\\@


 The cat could very well be man's best friend
 but would never stoop to admitting it.
                               -- Doug Larson
 Job cpu time:       0 days  0 hours  0 minutes 16.2 seconds.
 Elapsed time:       0 days  0 hours  0 minutes 16.0 seconds.
 File lengths (MBytes):  RWF=     10 Int=      0 D2E=      0 Chk=      2 Scr=      1
 Normal termination of Gaussian 16 at Fri Sep  6 10:01:47 2024.
