 Entering Gaussian System, Link 0=g16
 Input=/Users/asuyarger/Downloads/O2_HF_6311pp2d3p_Opt_Freq_Full.gjf
 Output=/Users/asuyarger/Downloads/O2_HF_6311pp2d3p_Opt_Freq_Full.log
 Initial command:
 /Users/asuyarger/Applications/G16/g16/l1.exe "/Users/asuyarger/Applications/G16/scratch/Gau-88519.inp" -scrdir="/Users/asuyarger/Applications/G16/scratch/"
 Entering Link 1 = /Users/asuyarger/Applications/G16/g16/l1.exe PID=     88520.
  
 Copyright (c) 1988,1990,1992,1993,1995,1998,2003,2009,2016,
            Gaussian, Inc.  All Rights Reserved.
  
 This is part of the Gaussian(R) 16 program.  It is based on
 the Gaussian(R) 09 system (copyright 2009, Gaussian, Inc.),
 the Gaussian(R) 03 system (copyright 2003, Gaussian, Inc.),
 the Gaussian(R) 98 system (copyright 1998, Gaussian, Inc.),
 the Gaussian(R) 94 system (copyright 1995, Gaussian, Inc.),
 the Gaussian 92(TM) system (copyright 1992, Gaussian, Inc.),
 the Gaussian 90(TM) system (copyright 1990, Gaussian, Inc.),
 the Gaussian 88(TM) system (copyright 1988, Gaussian, Inc.),
 the Gaussian 86(TM) system (copyright 1986, Carnegie Mellon
 University), and the Gaussian 82(TM) system (copyright 1983,
 Carnegie Mellon University). Gaussian is a federally registered
 trademark of Gaussian, Inc.
  
 This software contains proprietary and confidential information,
 including trade secrets, belonging to Gaussian, Inc.
  
 This software is provided under written license and may be
 used, copied, transmitted, or stored only in accord with that
 written license.
  
 The following legend is applicable only to US Government
 contracts under FAR:
  
                    RESTRICTED RIGHTS LEGEND
  
 Use, reproduction and disclosure by the US Government is
 subject to restrictions as set forth in subparagraphs (a)
 and (c) of the Commercial Computer Software - Restricted
 Rights clause in FAR 52.227-19.
  
 Gaussian, Inc.
 340 Quinnipiac St., Bldg. 40, Wallingford CT 06492
  
  
 ---------------------------------------------------------------
 Warning -- This program may not be used in any manner that
 competes with the business of Gaussian, Inc. or will provide
 assistance to any competitor of Gaussian, Inc.  The licensee
 of this program is prohibited from giving any competitor of
 Gaussian, Inc. access to this program.  By using this program,
 the user acknowledges that Gaussian, Inc. is engaged in the
 business of creating and licensing software in the field of
 computational chemistry and represents and warrants to the
 licensee that it is not a competitor of Gaussian, Inc. and that
 it will not use this program in any manner prohibited above.
 ---------------------------------------------------------------
  

 Cite this work as:
 Gaussian 16, Revision A.03,
 M. J. Frisch, G. W. Trucks, H. B. Schlegel, G. E. Scuseria, 
 M. A. Robb, J. R. Cheeseman, G. Scalmani, V. Barone, 
 G. A. Petersson, H. Nakatsuji, X. Li, M. Caricato, A. V. Marenich, 
 J. Bloino, B. G. Janesko, R. Gomperts, B. Mennucci, H. P. Hratchian, 
 J. V. Ortiz, A. F. Izmaylov, J. L. Sonnenberg, D. Williams-Young, 
 F. Ding, F. Lipparini, F. Egidi, J. Goings, B. Peng, A. Petrone, 
 T. Henderson, D. Ranasinghe, V. G. Zakrzewski, J. Gao, N. Rega, 
 G. Zheng, W. Liang, M. Hada, M. Ehara, K. Toyota, R. Fukuda, 
 J. Hasegawa, M. Ishida, T. Nakajima, Y. Honda, O. Kitao, H. Nakai, 
 T. Vreven, K. Throssell, J. A. Montgomery, Jr., J. E. Peralta, 
 F. Ogliaro, M. J. Bearpark, J. J. Heyd, E. N. Brothers, K. N. Kudin, 
 V. N. Staroverov, T. A. Keith, R. Kobayashi, J. Normand, 
 K. Raghavachari, A. P. Rendell, J. C. Burant, S. S. Iyengar, 
 J. Tomasi, M. Cossi, J. M. Millam, M. Klene, C. Adamo, R. Cammi, 
 J. W. Ochterski, R. L. Martin, K. Morokuma, O. Farkas, 
 J. B. Foresman, and D. J. Fox, Gaussian, Inc., Wallingford CT, 2016.
 
 ******************************************
 Gaussian 16:  EM64M-G16RevA.03 25-Dec-2016
                 6-Sep-2024 
 ******************************************
 %chk=O2_HF_6311pp2d3p_Opt_Freq_Full.chk
 ----------------------------------------------------------------------
 #p opt freq=raman hf/6-311++g(2d,3p) guess=save pop=(hirshfeld,full) g
 eom=connectivity polar
 ----------------------------------------------------------------------
 1/18=20,19=15,38=1,57=2/1,3;
 2/9=110,12=2,17=6,18=5,40=1/2;
 3/5=4,6=6,7=1512,11=9,25=1,30=1,71=1/1,2,3;
 4//1;
 5/5=2,38=5,98=1/2;
 6/7=3,28=1,79=1/1;
 7//1,2,3,16;
 1/18=20,19=15/3(2);
 2/9=110/2;
 99//99;
 2/9=110/2;
 3/5=4,6=6,7=1512,11=9,25=1,30=1,71=1/1,2,3;
 4/5=5,16=3,69=1/1;
 5/5=2,38=5,98=1/2;
 7//1,2,3,16;
 1/18=20,19=15/3(-5);
 2/9=110/2;
 6/7=3,19=2,28=1,79=1/1;
 99/9=1/99;
 Leave Link    1 at Fri Sep  6 09:58:53 2024, MaxMem=           0 cpu:               0.0 elap:               0.0
 (Enter /Users/asuyarger/Applications/G16/g16/l101.exe)
 -------------------------------------
 O2 HF 6-311++g(2d,3p) Opt Freq - Full
 -------------------------------------
 Symbolic Z-matrix:
 Charge =  0 Multiplicity = 1
 O                     1.55159  -0.69787  -0.02031 
 O                     0.38999  -0.69787  -0.02031 
 
 ITRead=  0  0
 MicOpt= -1 -1
 NAtoms=      2 NQM=        2 NQMF=       0 NMMI=      0 NMMIF=      0
                NMic=       0 NMicF=      0.
                    Isotopes and Nuclear Properties:
 (Nuclear quadrupole moments (NQMom) in fm**2, nuclear magnetic moments (NMagM)
  in nuclear magnetons)

  Atom         1           2
 IAtWgt=          16          16
 AtmWgt=  15.9949146  15.9949146
 NucSpn=           0           0
 AtZEff=  -0.0000000  -0.0000000
 NQMom=    0.0000000   0.0000000
 NMagM=    0.0000000   0.0000000
 AtZNuc=   8.0000000   8.0000000
 Leave Link  101 at Fri Sep  6 09:58:53 2024, MaxMem=   104857600 cpu:               0.1 elap:               0.1
 (Enter /Users/asuyarger/Applications/G16/g16/l103.exe)

 GradGradGradGradGradGradGradGradGradGradGradGradGradGradGradGradGradGrad
 Berny optimization.
 Initialization pass.
                           ----------------------------
                           !    Initial Parameters    !
                           ! (Angstroms and Degrees)  !
 --------------------------                            --------------------------
 ! Name  Definition              Value          Derivative Info.                !
 --------------------------------------------------------------------------------
 ! R1    R(1,2)                  1.1616         estimate D2E/DX2                !
 --------------------------------------------------------------------------------
 Trust Radius=3.00D-01 FncErr=1.00D-07 GrdErr=1.00D-07 EigMax=2.50D+02 EigMin=1.00D-04
 Number of steps in this run=     20 maximum allowed number of steps=    100.
 GradGradGradGradGradGradGradGradGradGradGradGradGradGradGradGradGradGrad

 Leave Link  103 at Fri Sep  6 09:58:53 2024, MaxMem=   104857600 cpu:               0.0 elap:               0.0
 (Enter /Users/asuyarger/Applications/G16/g16/l202.exe)
                          Input orientation:                          
 ---------------------------------------------------------------------
 Center     Atomic      Atomic             Coordinates (Angstroms)
 Number     Number       Type             X           Y           Z
 ---------------------------------------------------------------------
      1          8           0        1.551591   -0.697865   -0.020311
      2          8           0        0.389991   -0.697865   -0.020311
 ---------------------------------------------------------------------
 Stoichiometry    O2
 Framework group  D*H[C*(O.O)]
 Deg. of freedom     1
 Full point group                 D*H     NOp   8
 Largest Abelian subgroup         D2H     NOp   8
 Largest concise Abelian subgroup C2      NOp   2
                         Standard orientation:                         
 ---------------------------------------------------------------------
 Center     Atomic      Atomic             Coordinates (Angstroms)
 Number     Number       Type             X           Y           Z
 ---------------------------------------------------------------------
      1          8           0        0.000000    0.000000    0.580800
      2          8           0        0.000000    0.000000   -0.580800
 ---------------------------------------------------------------------
 Rotational constants (GHZ):           0.0000000          46.8330090          46.8330090
 Leave Link  202 at Fri Sep  6 09:58:53 2024, MaxMem=   104857600 cpu:               0.0 elap:               0.0
 (Enter /Users/asuyarger/Applications/G16/g16/l301.exe)
 Standard basis: 6-311++G(2d,3p) (5D, 7F)
 Ernie: Thresh=  0.10000D-02 Tol=  0.10000D-05 Strict=F.
 There are    15 symmetry adapted cartesian basis functions of AG  symmetry.
 There are     2 symmetry adapted cartesian basis functions of B1G symmetry.
 There are     6 symmetry adapted cartesian basis functions of B2G symmetry.
 There are     6 symmetry adapted cartesian basis functions of B3G symmetry.
 There are     2 symmetry adapted cartesian basis functions of AU  symmetry.
 There are    15 symmetry adapted cartesian basis functions of B1U symmetry.
 There are     6 symmetry adapted cartesian basis functions of B2U symmetry.
 There are     6 symmetry adapted cartesian basis functions of B3U symmetry.
 There are    13 symmetry adapted basis functions of AG  symmetry.
 There are     2 symmetry adapted basis functions of B1G symmetry.
 There are     6 symmetry adapted basis functions of B2G symmetry.
 There are     6 symmetry adapted basis functions of B3G symmetry.
 There are     2 symmetry adapted basis functions of AU  symmetry.
 There are    13 symmetry adapted basis functions of B1U symmetry.
 There are     6 symmetry adapted basis functions of B2U symmetry.
 There are     6 symmetry adapted basis functions of B3U symmetry.
    54 basis functions,    84 primitive gaussians,    58 cartesian basis functions
     8 alpha electrons        8 beta electrons
       nuclear repulsion energy        29.1557691967 Hartrees.
 IExCor=    0 DFT=F Ex=HF Corr=None ExCW=0 ScaHFX=  1.000000
 ScaDFX=  1.000000  1.000000  1.000000  1.000000 ScalE2=  1.000000  1.000000
 IRadAn=      5 IRanWt=     -1 IRanGd=            0 ICorTp=0 IEmpDi=  4
 NAtoms=    2 NActive=    2 NUniq=    1 SFac= 4.00D+00 NAtFMM=   60 NAOKFM=F Big=F
 Integral buffers will be    131072 words long.
 Raffenetti 1 integral format.
 Two-electron integral symmetry is turned on.
 Leave Link  301 at Fri Sep  6 09:58:53 2024, MaxMem=   104857600 cpu:               0.0 elap:               0.0
 (Enter /Users/asuyarger/Applications/G16/g16/l302.exe)
 NPDir=0 NMtPBC=     1 NCelOv=     1 NCel=       1 NClECP=     1 NCelD=      1
         NCelK=      1 NCelE2=     1 NClLst=     1 CellRange=     0.0.
 One-electron integrals computed using PRISM.
 One-electron integral symmetry used in STVInt
 NBasis=    54 RedAO= T EigKep=  5.98D-04  NBF=    13     2     6     6     2    13     6     6
 NBsUse=    54 1.00D-06 EigRej= -1.00D+00 NBFU=    13     2     6     6     2    13     6     6
 Leave Link  302 at Fri Sep  6 09:58:53 2024, MaxMem=   104857600 cpu:               0.0 elap:               0.1
 (Enter /Users/asuyarger/Applications/G16/g16/l303.exe)
 DipDrv:  MaxL=1.
 Leave Link  303 at Fri Sep  6 09:58:53 2024, MaxMem=   104857600 cpu:               0.0 elap:               0.0
 (Enter /Users/asuyarger/Applications/G16/g16/l401.exe)
 ExpMin= 8.45D-02 ExpMax= 8.59D+03 ExpMxC= 1.30D+03 IAcc=3 IRadAn=         5 AccDes= 0.00D+00
 Harris functional with IExCor=  205 and IRadAn=       5 diagonalized for initial guess.
 HarFok:  IExCor=  205 AccDes= 0.00D+00 IRadAn=         5 IDoV= 1 UseB2=F ITyADJ=14
 ICtDFT=  3500011 ScaDFX=  1.000000  1.000000  1.000000  1.000000
 FoFCou: FMM=F IPFlag=           0 FMFlag=      100000 FMFlg1=           0
         NFxFlg=           0 DoJE=T BraDBF=F KetDBF=T FulRan=T
         wScrn=  0.000000 ICntrl=       500 IOpCl=  0 I1Cent=   200000004 NGrid=           0
         NMat0=    1 NMatS0=      1 NMatT0=    0 NMatD0=    1 NMtDS0=    0 NMtDT0=    0
 Petite list used in FoFCou.
 Harris En= -149.592547716171    
 JPrj=0 DoOrth=F DoCkMO=F.
 Initial guess orbital symmetries:
       Occupied  (SGG) (SGU) (SGG) (SGU) (SGG) (PIU) (PIU) (PIG)
       Virtual   (PIG) (SGG) (SGU) (PIU) (PIU) (SGG) (PIG) (PIG)
                 (SGU) (SGU) (SGU) (SGG) (PIU) (PIU) (PIG) (PIG)
                 (SGG) (DLTG) (DLTG) (PIU) (PIU) (SGU) (DLTU) (DLTU)
                 (PIG) (PIG) (SGG) (SGU) (PIU) (PIU) (SGG) (PIG)
                 (PIG) (SGU) (DLTG) (DLTG) (DLTU) (DLTU) (PIU)
                 (PIU) (SGG) (PIG) (PIG) (SGU) (SGG) (SGU)
 Leave Link  401 at Fri Sep  6 09:58:53 2024, MaxMem=   104857600 cpu:               0.1 elap:               0.1
 (Enter /Users/asuyarger/Applications/G16/g16/l502.exe)
 Keep R1 ints in memory in symmetry-blocked form, NReq=1940879.
 FoFCou: FMM=F IPFlag=           0 FMFlag=           0 FMFlg1=           0
         NFxFlg=           0 DoJE=F BraDBF=F KetDBF=F FulRan=T
         wScrn=  0.000000 ICntrl=       600 IOpCl=  0 I1Cent=           0 NGrid=           0
         NMat0=    1 NMatS0=   1485 NMatT0=    0 NMatD0=    1 NMtDS0=    0 NMtDT0=    0
 Petite list used in FoFCou.
 Closed shell SCF:
 Using DIIS extrapolation, IDIIS=  1040.
 NGot=   104857600 LenX=   104695113 LenY=   104691308
 Requested convergence on RMS density matrix=1.00D-08 within 128 cycles.
 Requested convergence on MAX density matrix=1.00D-06.
 Requested convergence on             energy=1.00D-06.
 No special actions if energy rises.

 Cycle   1  Pass 1  IDiag  1:
 E= -149.551680205322    
 DIIS: error= 9.00D-02 at cycle   1 NSaved=   1.
 NSaved= 1 IEnMin= 1 EnMin= -149.551680205322     IErMin= 1 ErrMin= 9.00D-02
 ErrMax= 9.00D-02  0.00D+00 EMaxC= 1.00D-01 BMatC= 1.74D-01 BMatP= 1.74D-01
 IDIUse=3 WtCom= 9.97D-02 WtEn= 9.00D-01
 Coeff-Com:  0.100D+01
 Coeff-En:   0.100D+01
 Coeff:      0.100D+01
 Gap=     0.492 Goal=   None    Shift=    0.000
 GapD=    0.492 DampG=2.000 DampE=0.500 DampFc=1.0000 IDamp=-1.
 RMSDP=1.92D-03 MaxDP=1.97D-02              OVMax= 4.31D-02

 Cycle   2  Pass 1  IDiag  1:
 E= -149.583261925609     Delta-E=       -0.031581720287 Rises=F Damp=F
 DIIS: error= 6.14D-03 at cycle   2 NSaved=   2.
 NSaved= 2 IEnMin= 2 EnMin= -149.583261925609     IErMin= 2 ErrMin= 6.14D-03
 ErrMax= 6.14D-03  0.00D+00 EMaxC= 1.00D-01 BMatC= 1.20D-03 BMatP= 1.74D-01
 IDIUse=3 WtCom= 9.39D-01 WtEn= 6.14D-02
 Coeff-Com: -0.350D-01 0.103D+01
 Coeff-En:   0.000D+00 0.100D+01
 Coeff:     -0.328D-01 0.103D+01
 Gap=     0.487 Goal=   None    Shift=    0.000
 RMSDP=4.99D-04 MaxDP=6.96D-03 DE=-3.16D-02 OVMax= 7.47D-03

 Cycle   3  Pass 1  IDiag  1:
 E= -149.584077594606     Delta-E=       -0.000815668996 Rises=F Damp=F
 DIIS: error= 2.17D-03 at cycle   3 NSaved=   3.
 NSaved= 3 IEnMin= 3 EnMin= -149.584077594606     IErMin= 3 ErrMin= 2.17D-03
 ErrMax= 2.17D-03  0.00D+00 EMaxC= 1.00D-01 BMatC= 4.35D-05 BMatP= 1.20D-03
 IDIUse=3 WtCom= 9.78D-01 WtEn= 2.17D-02
 Coeff-Com: -0.627D-02 0.209D-01 0.985D+00
 Coeff-En:   0.000D+00 0.000D+00 0.100D+01
 Coeff:     -0.614D-02 0.204D-01 0.986D+00
 Gap=     0.489 Goal=   None    Shift=    0.000
 RMSDP=1.35D-04 MaxDP=1.22D-03 DE=-8.16D-04 OVMax= 2.81D-03

 Cycle   4  Pass 1  IDiag  1:
 E= -149.584124537079     Delta-E=       -0.000046942473 Rises=F Damp=F
 DIIS: error= 5.00D-04 at cycle   4 NSaved=   4.
 NSaved= 4 IEnMin= 4 EnMin= -149.584124537079     IErMin= 4 ErrMin= 5.00D-04
 ErrMax= 5.00D-04  0.00D+00 EMaxC= 1.00D-01 BMatC= 2.49D-06 BMatP= 4.35D-05
 IDIUse=3 WtCom= 9.95D-01 WtEn= 5.00D-03
 Coeff-Com:  0.168D-02-0.320D-01-0.199D+00 0.123D+01
 Coeff-En:   0.000D+00 0.000D+00 0.000D+00 0.100D+01
 Coeff:      0.167D-02-0.319D-01-0.198D+00 0.123D+01
 Gap=     0.490 Goal=   None    Shift=    0.000
 RMSDP=5.14D-05 MaxDP=5.07D-04 DE=-4.69D-05 OVMax= 1.07D-03

 Cycle   5  Pass 1  IDiag  1:
 E= -149.584129310680     Delta-E=       -0.000004773601 Rises=F Damp=F
 DIIS: error= 7.23D-05 at cycle   5 NSaved=   5.
 NSaved= 5 IEnMin= 5 EnMin= -149.584129310680     IErMin= 5 ErrMin= 7.23D-05
 ErrMax= 7.23D-05  0.00D+00 EMaxC= 1.00D-01 BMatC= 6.07D-08 BMatP= 2.49D-06
 IDIUse=1 WtCom= 1.00D+00 WtEn= 0.00D+00
 Coeff-Com:  0.138D-03-0.282D-03-0.139D-01-0.285D-01 0.104D+01
 Coeff:      0.138D-03-0.282D-03-0.139D-01-0.285D-01 0.104D+01
 Gap=     0.490 Goal=   None    Shift=    0.000
 RMSDP=7.26D-06 MaxDP=5.86D-05 DE=-4.77D-06 OVMax= 1.88D-04

 Cycle   6  Pass 1  IDiag  1:
 E= -149.584129417556     Delta-E=       -0.000000106876 Rises=F Damp=F
 DIIS: error= 1.82D-05 at cycle   6 NSaved=   6.
 NSaved= 6 IEnMin= 6 EnMin= -149.584129417556     IErMin= 6 ErrMin= 1.82D-05
 ErrMax= 1.82D-05  0.00D+00 EMaxC= 1.00D-01 BMatC= 4.69D-09 BMatP= 6.07D-08
 IDIUse=1 WtCom= 1.00D+00 WtEn= 0.00D+00
 Coeff-Com: -0.124D-03 0.251D-02 0.159D-01-0.985D-01 0.292D-01 0.105D+01
 Coeff:     -0.124D-03 0.251D-02 0.159D-01-0.985D-01 0.292D-01 0.105D+01
 Gap=     0.490 Goal=   None    Shift=    0.000
 RMSDP=1.97D-06 MaxDP=2.15D-05 DE=-1.07D-07 OVMax= 4.62D-05

 Cycle   7  Pass 1  IDiag  1:
 E= -149.584129424743     Delta-E=       -0.000000007187 Rises=F Damp=F
 DIIS: error= 2.01D-06 at cycle   7 NSaved=   7.
 NSaved= 7 IEnMin= 7 EnMin= -149.584129424743     IErMin= 7 ErrMin= 2.01D-06
 ErrMax= 2.01D-06  0.00D+00 EMaxC= 1.00D-01 BMatC= 7.97D-11 BMatP= 4.69D-09
 IDIUse=1 WtCom= 1.00D+00 WtEn= 0.00D+00
 Coeff-Com:  0.152D-04-0.400D-03-0.195D-02 0.162D-01-0.439D-01-0.103D+00
 Coeff-Com:  0.113D+01
 Coeff:      0.152D-04-0.400D-03-0.195D-02 0.162D-01-0.439D-01-0.103D+00
 Coeff:      0.113D+01
 Gap=     0.490 Goal=   None    Shift=    0.000
 RMSDP=2.08D-07 MaxDP=2.32D-06 DE=-7.19D-09 OVMax= 3.78D-06

 Cycle   8  Pass 1  IDiag  1:
 E= -149.584129424840     Delta-E=       -0.000000000097 Rises=F Damp=F
 DIIS: error= 2.43D-07 at cycle   8 NSaved=   8.
 NSaved= 8 IEnMin= 8 EnMin= -149.584129424840     IErMin= 8 ErrMin= 2.43D-07
 ErrMax= 2.43D-07  0.00D+00 EMaxC= 1.00D-01 BMatC= 1.00D-12 BMatP= 7.97D-11
 IDIUse=1 WtCom= 1.00D+00 WtEn= 0.00D+00
 Coeff-Com: -0.230D-05 0.734D-04 0.356D-03-0.319D-02 0.117D-01 0.141D-01
 Coeff-Com: -0.314D+00 0.129D+01
 Coeff:     -0.230D-05 0.734D-04 0.356D-03-0.319D-02 0.117D-01 0.141D-01
 Coeff:     -0.314D+00 0.129D+01
 Gap=     0.490 Goal=   None    Shift=    0.000
 RMSDP=3.55D-08 MaxDP=3.28D-07 DE=-9.67D-11 OVMax= 7.86D-07

 Cycle   9  Pass 1  IDiag  1:
 E= -149.584129424842     Delta-E=       -0.000000000002 Rises=F Damp=F
 DIIS: error= 2.08D-08 at cycle   9 NSaved=   9.
 NSaved= 9 IEnMin= 9 EnMin= -149.584129424842     IErMin= 9 ErrMin= 2.08D-08
 ErrMax= 2.08D-08  0.00D+00 EMaxC= 1.00D-01 BMatC= 1.46D-14 BMatP= 1.00D-12
 IDIUse=1 WtCom= 1.00D+00 WtEn= 0.00D+00
 Coeff-Com:  0.352D-06-0.122D-04-0.455D-04 0.491D-03-0.221D-02-0.103D-02
 Coeff-Com:  0.533D-01-0.282D+00 0.123D+01
 Coeff:      0.352D-06-0.122D-04-0.455D-04 0.491D-03-0.221D-02-0.103D-02
 Coeff:      0.533D-01-0.282D+00 0.123D+01
 Gap=     0.490 Goal=   None    Shift=    0.000
 RMSDP=2.73D-09 MaxDP=2.34D-08 DE=-1.82D-12 OVMax= 7.27D-08

 SCF Done:  E(RHF) =  -149.584129425     A.U. after    9 cycles
            NFock=  9  Conv=0.27D-08     -V/T= 2.0002
 KE= 1.495470550018D+02 PE=-4.131247850199D+02 EE= 8.483783139654D+01
 Leave Link  502 at Fri Sep  6 09:58:53 2024, MaxMem=   104857600 cpu:               0.2 elap:               0.2
 (Enter /Users/asuyarger/Applications/G16/g16/l601.exe)
 Copying SCF densities to generalized density rwf, IOpCl= 0 IROHF=0.

 **********************************************************************

            Population analysis using the SCF density.

 **********************************************************************

 Orbital symmetries:
       Occupied  (SGG) (SGU) (SGG) (SGU) (PIU) (SGG) (PIU) (?A)
       Virtual   (?A) (SGU) (SGG) (PIU) (PIU) (SGG) (?A) (?A) (SGU)
                 (SGU) (SGG) (SGU) (PIU) (PIU) (?A) (?A) (?B) (?B)
                 (?B) (PIU) (PIU) (?C) (?C) (?C) (PIG) (PIG) (SGG)
                 (SGU) (PIU) (PIU) (SGG) (PIG) (PIG) (SGU) (?D)
                 (?D) (DLTU) (DLTU) (PIU) (PIU) (?D) (PIG) (PIG)
                 (SGU) (SGG) (SGU)
 Unable to determine electronic state:  an orbital has unidentified symmetry.
 Alpha  occ. eigenvalues --  -20.73746 -20.73631  -1.70529  -1.09117  -0.79026
 Alpha  occ. eigenvalues --   -0.75798  -0.67884  -0.45373
 Alpha virt. eigenvalues --    0.03598   0.17438   0.18110   0.21587   0.22119
 Alpha virt. eigenvalues --    0.28494   0.28925   0.30126   0.42821   0.57430
 Alpha virt. eigenvalues --    1.13102   1.13922   1.16577   1.16635   1.24348
 Alpha virt. eigenvalues --    1.25895   1.38765   1.45893   1.46471   1.58973
 Alpha virt. eigenvalues --    1.59275   1.75176   1.92362   1.92464   2.56553
 Alpha virt. eigenvalues --    2.58739   2.60432   2.81470   5.25174   5.26393
 Alpha virt. eigenvalues --    5.37136   5.53328   5.55186   6.76577   7.06714
 Alpha virt. eigenvalues --    7.06873   7.19152   7.19170   7.22149   7.25883
 Alpha virt. eigenvalues --    7.26835   7.32329   7.35545   7.83731  51.35446
 Alpha virt. eigenvalues --   51.47130
     Molecular Orbital Coefficients:
                           1         2         3         4         5
                       (SGG)--O  (SGU)--O  (SGG)--O  (SGU)--O  (PIU)--O
     Eigenvalues --   -20.73746 -20.73631  -1.70529  -1.09117  -0.79026
   1 1   O  1S          0.38997   0.39003  -0.08358  -0.08708   0.00000
   2        2S          0.33351   0.33365  -0.13946  -0.14720   0.00000
   3        2PX         0.00000   0.00000   0.00000   0.00000   0.00000
   4        2PY         0.00000   0.00000   0.00000   0.00000   0.21145
   5        2PZ        -0.00150  -0.00146  -0.07362   0.07328   0.00000
   6        3S          0.00381   0.00358   0.40185   0.44356   0.00000
   7        3PX         0.00000   0.00000   0.00000   0.00000   0.00000
   8        3PY         0.00000   0.00000   0.00000   0.00000   0.32947
   9        3PZ         0.00028   0.00115  -0.12267   0.10223   0.00000
  10        4S         -0.00031  -0.00254   0.22065   0.45768   0.00000
  11        4PX         0.00000   0.00000   0.00000   0.00000   0.00000
  12        4PY         0.00000   0.00000   0.00000   0.00000   0.22426
  13        4PZ        -0.00019   0.00095  -0.03532   0.02332   0.00000
  14        5S          0.00016   0.00382  -0.01293  -0.19899   0.00000
  15        5PX         0.00000   0.00000   0.00000   0.00000   0.00000
  16        5PY         0.00000   0.00000   0.00000   0.00000   0.00477
  17        5PZ         0.00005  -0.00117   0.00983   0.06617   0.00000
  18        6D 0        0.00016   0.00002   0.01184  -0.00452   0.00000
  19        6D+1        0.00000   0.00000   0.00000   0.00000   0.00000
  20        6D-1        0.00000   0.00000   0.00000   0.00000  -0.00910
  21        6D+2       -0.00015  -0.00017  -0.00015  -0.00070   0.00000
  22        6D-2        0.00000   0.00000   0.00000   0.00000   0.00000
  23        7D 0       -0.00005  -0.00054   0.02209  -0.00425   0.00000
  24        7D+1        0.00000   0.00000   0.00000   0.00000   0.00000
  25        7D-1        0.00000   0.00000   0.00000   0.00000  -0.02591
  26        7D+2       -0.00010  -0.00019   0.00235  -0.00266   0.00000
  27        7D-2        0.00000   0.00000   0.00000   0.00000   0.00000
  28 2   O  1S          0.38997  -0.39003  -0.08358   0.08708   0.00000
  29        2S          0.33351  -0.33365  -0.13946   0.14720   0.00000
  30        2PX         0.00000   0.00000   0.00000   0.00000   0.00000
  31        2PY         0.00000   0.00000   0.00000   0.00000   0.21145
  32        2PZ         0.00150  -0.00146   0.07362   0.07328   0.00000
  33        3S          0.00381  -0.00358   0.40185  -0.44356   0.00000
  34        3PX         0.00000   0.00000   0.00000   0.00000   0.00000
  35        3PY         0.00000   0.00000   0.00000   0.00000   0.32947
  36        3PZ        -0.00028   0.00115   0.12267   0.10223   0.00000
  37        4S         -0.00031   0.00254   0.22065  -0.45768   0.00000
  38        4PX         0.00000   0.00000   0.00000   0.00000   0.00000
  39        4PY         0.00000   0.00000   0.00000   0.00000   0.22426
  40        4PZ         0.00019   0.00095   0.03532   0.02332   0.00000
  41        5S          0.00016  -0.00382  -0.01293   0.19899   0.00000
  42        5PX         0.00000   0.00000   0.00000   0.00000   0.00000
  43        5PY         0.00000   0.00000   0.00000   0.00000   0.00477
  44        5PZ        -0.00005  -0.00117  -0.00983   0.06617   0.00000
  45        6D 0        0.00016  -0.00002   0.01184   0.00452   0.00000
  46        6D+1        0.00000   0.00000   0.00000   0.00000   0.00000
  47        6D-1        0.00000   0.00000   0.00000   0.00000   0.00910
  48        6D+2       -0.00015   0.00017  -0.00015   0.00070   0.00000
  49        6D-2        0.00000   0.00000   0.00000   0.00000   0.00000
  50        7D 0       -0.00005   0.00054   0.02209   0.00425   0.00000
  51        7D+1        0.00000   0.00000   0.00000   0.00000   0.00000
  52        7D-1        0.00000   0.00000   0.00000   0.00000   0.02591
  53        7D+2       -0.00010   0.00019   0.00235   0.00266   0.00000
  54        7D-2        0.00000   0.00000   0.00000   0.00000   0.00000
                           6         7         8         9        10
                       (SGG)--O  (PIU)--O      O         V     (SGU)--V
     Eigenvalues --    -0.75798  -0.67884  -0.45373   0.03598   0.17438
   1 1   O  1S         -0.02893   0.00000   0.00000   0.00000  -0.02019
   2        2S         -0.04906   0.00000   0.00000   0.00000  -0.03554
   3        2PX         0.00000   0.19073   0.00000   0.20262   0.00000
   4        2PY         0.00000   0.00000   0.24221   0.00000   0.00000
   5        2PZ         0.20712   0.00000   0.00000   0.00000  -0.00875
   6        3S          0.14952   0.00000   0.00000   0.00000   0.14955
   7        3PX         0.00000   0.30829   0.00000   0.32214   0.00000
   8        3PY         0.00000   0.00000   0.37199   0.00000   0.00000
   9        3PZ         0.32635   0.00000   0.00000   0.00000  -0.00920
  10        4S          0.21706   0.00000   0.00000   0.00000  -0.37440
  11        4PX         0.00000   0.24680   0.00000   0.37857   0.00000
  12        4PY         0.00000   0.00000   0.37005   0.00000   0.00000
  13        4PZ         0.20125   0.00000   0.00000   0.00000   0.47473
  14        5S          0.03019   0.00000   0.00000   0.00000   8.03088
  15        5PX         0.00000   0.01284   0.00000   0.38702   0.00000
  16        5PY         0.00000   0.00000   0.06611   0.00000   0.00000
  17        5PZ        -0.00621   0.00000   0.00000   0.00000  -3.44252
  18        6D 0       -0.01307   0.00000   0.00000   0.00000   0.00116
  19        6D+1        0.00000  -0.01085   0.00000   0.00398   0.00000
  20        6D-1        0.00000   0.00000   0.00285   0.00000   0.00000
  21        6D+2       -0.00046   0.00000   0.00000   0.00000   0.00021
  22        6D-2        0.00000   0.00000   0.00000   0.00000   0.00000
  23        7D 0       -0.02677   0.00000   0.00000   0.00000  -0.07368
  24        7D+1        0.00000  -0.04447   0.00000   0.01165   0.00000
  25        7D-1        0.00000   0.00000   0.00881   0.00000   0.00000
  26        7D+2       -0.00118   0.00000   0.00000   0.00000  -0.00032
  27        7D-2        0.00000   0.00000   0.00000   0.00000   0.00000
  28 2   O  1S         -0.02893   0.00000   0.00000   0.00000   0.02019
  29        2S         -0.04906   0.00000   0.00000   0.00000   0.03554
  30        2PX         0.00000   0.19073   0.00000  -0.20262   0.00000
  31        2PY         0.00000   0.00000  -0.24221   0.00000   0.00000
  32        2PZ        -0.20712   0.00000   0.00000   0.00000  -0.00875
  33        3S          0.14952   0.00000   0.00000   0.00000  -0.14955
  34        3PX         0.00000   0.30829   0.00000  -0.32214   0.00000
  35        3PY         0.00000   0.00000  -0.37199   0.00000   0.00000
  36        3PZ        -0.32635   0.00000   0.00000   0.00000  -0.00920
  37        4S          0.21706   0.00000   0.00000   0.00000   0.37440
  38        4PX         0.00000   0.24680   0.00000  -0.37857   0.00000
  39        4PY         0.00000   0.00000  -0.37005   0.00000   0.00000
  40        4PZ        -0.20125   0.00000   0.00000   0.00000   0.47473
  41        5S          0.03019   0.00000   0.00000   0.00000  -8.03088
  42        5PX         0.00000   0.01284   0.00000  -0.38702   0.00000
  43        5PY         0.00000   0.00000  -0.06611   0.00000   0.00000
  44        5PZ         0.00621   0.00000   0.00000   0.00000  -3.44252
  45        6D 0       -0.01307   0.00000   0.00000   0.00000  -0.00116
  46        6D+1        0.00000   0.01085   0.00000   0.00398   0.00000
  47        6D-1        0.00000   0.00000   0.00285   0.00000   0.00000
  48        6D+2       -0.00046   0.00000   0.00000   0.00000  -0.00021
  49        6D-2        0.00000   0.00000   0.00000   0.00000   0.00000
  50        7D 0       -0.02677   0.00000   0.00000   0.00000   0.07368
  51        7D+1        0.00000   0.04447   0.00000   0.01165   0.00000
  52        7D-1        0.00000   0.00000   0.00881   0.00000   0.00000
  53        7D+2       -0.00118   0.00000   0.00000   0.00000   0.00032
  54        7D-2        0.00000   0.00000   0.00000   0.00000   0.00000
                          11        12        13        14        15
                       (SGG)--V  (PIU)--V  (PIU)--V  (SGG)--V      V
     Eigenvalues --     0.18110   0.21587   0.22119   0.28494   0.28925
   1 1   O  1S          0.02099   0.00000   0.00000  -0.01104   0.00000
   2        2S          0.03457   0.00000   0.00000  -0.01710   0.00000
   3        2PX         0.00000  -0.06833   0.00000   0.00000   0.00000
   4        2PY         0.00000   0.00000  -0.06675   0.00000  -0.06857
   5        2PZ        -0.04763   0.00000   0.00000  -0.02149   0.00000
   6        3S         -0.07920   0.00000   0.00000   0.01239   0.00000
   7        3PX         0.00000  -0.05483   0.00000   0.00000   0.00000
   8        3PY         0.00000   0.00000  -0.04786   0.00000  -0.05207
   9        3PZ        -0.03087   0.00000   0.00000   0.00353   0.00000
  10        4S         -0.62140   0.00000   0.00000   0.50498   0.00000
  11        4PX         0.00000  -0.34266   0.00000   0.00000   0.00000
  12        4PY         0.00000   0.00000  -0.32859   0.00000  -0.43987
  13        4PZ        -0.23549   0.00000   0.00000  -0.15665   0.00000
  14        5S          0.94451   0.00000   0.00000  -0.17854   0.00000
  15        5PX         0.00000   0.69249   0.00000   0.00000   0.00000
  16        5PY         0.00000   0.00000   0.68996   0.00000   1.96108
  17        5PZ         0.53177   0.00000   0.00000   1.32526   0.00000
  18        6D 0       -0.00243   0.00000   0.00000   0.00790   0.00000
  19        6D+1        0.00000   0.00473   0.00000   0.00000   0.00000
  20        6D-1        0.00000   0.00000   0.00406   0.00000  -0.00069
  21        6D+2       -0.00047   0.00000   0.00000   0.00055   0.00000
  22        6D-2        0.00000   0.00000   0.00000   0.00000   0.00000
  23        7D 0        0.01088   0.00000   0.00000   0.01788   0.00000
  24        7D+1        0.00000   0.01158   0.00000   0.00000   0.00000
  25        7D-1        0.00000   0.00000   0.00664   0.00000   0.02346
  26        7D+2        0.00224   0.00000   0.00000  -0.00353   0.00000
  27        7D-2        0.00000   0.00000   0.00000   0.00000   0.00000
  28 2   O  1S          0.02099   0.00000   0.00000  -0.01104   0.00000
  29        2S          0.03457   0.00000   0.00000  -0.01710   0.00000
  30        2PX         0.00000  -0.06833   0.00000   0.00000   0.00000
  31        2PY         0.00000   0.00000  -0.06675   0.00000   0.06857
  32        2PZ         0.04763   0.00000   0.00000   0.02149   0.00000
  33        3S         -0.07920   0.00000   0.00000   0.01239   0.00000
  34        3PX         0.00000  -0.05483   0.00000   0.00000   0.00000
  35        3PY         0.00000   0.00000  -0.04786   0.00000   0.05207
  36        3PZ         0.03087   0.00000   0.00000  -0.00353   0.00000
  37        4S         -0.62140   0.00000   0.00000   0.50498   0.00000
  38        4PX         0.00000  -0.34266   0.00000   0.00000   0.00000
  39        4PY         0.00000   0.00000  -0.32859   0.00000   0.43987
  40        4PZ         0.23549   0.00000   0.00000   0.15665   0.00000
  41        5S          0.94451   0.00000   0.00000  -0.17854   0.00000
  42        5PX         0.00000   0.69249   0.00000   0.00000   0.00000
  43        5PY         0.00000   0.00000   0.68996   0.00000  -1.96108
  44        5PZ        -0.53177   0.00000   0.00000  -1.32526   0.00000
  45        6D 0       -0.00243   0.00000   0.00000   0.00790   0.00000
  46        6D+1        0.00000  -0.00473   0.00000   0.00000   0.00000
  47        6D-1        0.00000   0.00000  -0.00406   0.00000  -0.00069
  48        6D+2       -0.00047   0.00000   0.00000   0.00055   0.00000
  49        6D-2        0.00000   0.00000   0.00000   0.00000   0.00000
  50        7D 0        0.01088   0.00000   0.00000   0.01788   0.00000
  51        7D+1        0.00000  -0.01158   0.00000   0.00000   0.00000
  52        7D-1        0.00000   0.00000  -0.00664   0.00000   0.02346
  53        7D+2        0.00224   0.00000   0.00000  -0.00353   0.00000
  54        7D-2        0.00000   0.00000   0.00000   0.00000   0.00000
                          16        17        18        19        20
                           V     (SGU)--V  (SGU)--V  (SGG)--V  (SGU)--V
     Eigenvalues --     0.30126   0.42821   0.57430   1.13102   1.13922
   1 1   O  1S          0.00000   0.01725   0.04610   0.00523   0.00118
   2        2S          0.00000   0.02679   0.08078   0.00504   0.00305
   3        2PX        -0.10567   0.00000   0.00000   0.00000   0.00000
   4        2PY         0.00000   0.00000   0.00000   0.00000   0.00000
   5        2PZ         0.00000  -0.02465   0.21010  -0.10626   0.23362
   6        3S          0.00000  -0.00413  -0.20729   0.08854  -0.15940
   7        3PX        -0.11114   0.00000   0.00000   0.00000   0.00000
   8        3PY         0.00000   0.00000   0.00000   0.00000   0.00000
   9        3PZ         0.00000   0.01918   0.35164  -0.53628   0.40590
  10        4S          0.00000  -1.17588  -2.12033   0.13334   3.70014
  11        4PX        -0.55225   0.00000   0.00000   0.00000   0.00000
  12        4PY         0.00000   0.00000   0.00000   0.00000   0.00000
  13        4PZ         0.00000  -0.10723   1.83717   1.20179  -3.39632
  14        5S          0.00000  22.39975   2.35398  -0.17225  -0.40799
  15        5PX         1.94032   0.00000   0.00000   0.00000   0.00000
  16        5PY         0.00000   0.00000   0.00000   0.00000   0.00000
  17        5PZ         0.00000  -7.16525  -1.13870  -0.82922   0.65115
  18        6D 0        0.00000  -0.00063   0.02189   0.02871  -0.02031
  19        6D+1       -0.00195   0.00000   0.00000   0.00000   0.00000
  20        6D-1        0.00000   0.00000   0.00000   0.00000   0.00000
  21        6D+2        0.00000  -0.00056  -0.00004   0.00015   0.00023
  22        6D-2        0.00000   0.00000   0.00000   0.00000   0.00000
  23        7D 0        0.00000  -0.02812  -0.05188   0.09598   0.43542
  24        7D+1        0.02119   0.00000   0.00000   0.00000   0.00000
  25        7D-1        0.00000   0.00000   0.00000   0.00000   0.00000
  26        7D+2        0.00000   0.00042   0.00145  -0.01863  -0.00026
  27        7D-2        0.00000   0.00000   0.00000   0.00000   0.00000
  28 2   O  1S          0.00000  -0.01725  -0.04610   0.00523  -0.00118
  29        2S          0.00000  -0.02679  -0.08078   0.00504  -0.00305
  30        2PX         0.10567   0.00000   0.00000   0.00000   0.00000
  31        2PY         0.00000   0.00000   0.00000   0.00000   0.00000
  32        2PZ         0.00000  -0.02465   0.21010   0.10626   0.23362
  33        3S          0.00000   0.00413   0.20729   0.08854   0.15940
  34        3PX         0.11114   0.00000   0.00000   0.00000   0.00000
  35        3PY         0.00000   0.00000   0.00000   0.00000   0.00000
  36        3PZ         0.00000   0.01918   0.35164   0.53628   0.40590
  37        4S          0.00000   1.17588   2.12033   0.13334  -3.70014
  38        4PX         0.55225   0.00000   0.00000   0.00000   0.00000
  39        4PY         0.00000   0.00000   0.00000   0.00000   0.00000
  40        4PZ         0.00000  -0.10723   1.83717  -1.20179  -3.39632
  41        5S          0.00000 -22.39975  -2.35398  -0.17225   0.40799
  42        5PX        -1.94032   0.00000   0.00000   0.00000   0.00000
  43        5PY         0.00000   0.00000   0.00000   0.00000   0.00000
  44        5PZ         0.00000  -7.16525  -1.13870   0.82922   0.65115
  45        6D 0        0.00000   0.00063  -0.02189   0.02871   0.02031
  46        6D+1       -0.00195   0.00000   0.00000   0.00000   0.00000
  47        6D-1        0.00000   0.00000   0.00000   0.00000   0.00000
  48        6D+2        0.00000   0.00056   0.00004   0.00015  -0.00023
  49        6D-2        0.00000   0.00000   0.00000   0.00000   0.00000
  50        7D 0        0.00000   0.02812   0.05188   0.09598  -0.43542
  51        7D+1        0.02119   0.00000   0.00000   0.00000   0.00000
  52        7D-1        0.00000   0.00000   0.00000   0.00000   0.00000
  53        7D+2        0.00000  -0.00042  -0.00145  -0.01863   0.00026
  54        7D-2        0.00000   0.00000   0.00000   0.00000   0.00000
                          21        22        23        24        25
                       (PIU)--V  (PIU)--V      V         V         V
     Eigenvalues --     1.16577   1.16635   1.24348   1.25895   1.38765
   1 1   O  1S          0.00000   0.00000   0.00000   0.00000   0.07283
   2        2S          0.00000   0.00000   0.00000   0.00000   0.15249
   3        2PX         0.00000  -0.15986   0.00000  -0.17552   0.00000
   4        2PY        -0.16183   0.00000  -0.16329   0.00000   0.00000
   5        2PZ         0.00000   0.00000   0.00000   0.00000  -0.04347
   6        3S          0.00000   0.00000   0.00000   0.00000  -1.10467
   7        3PX         0.00000  -0.61289   0.00000  -0.62209   0.00000
   8        3PY        -0.60134   0.00000  -0.58696   0.00000   0.00000
   9        3PZ         0.00000   0.00000   0.00000   0.00000  -0.13247
  10        4S          0.00000   0.00000   0.00000   0.00000   1.58186
  11        4PX         0.00000   1.01124   0.00000   1.58347   0.00000
  12        4PY         1.01953   0.00000   1.61426   0.00000   0.00000
  13        4PZ         0.00000   0.00000   0.00000   0.00000   0.19284
  14        5S          0.00000   0.00000   0.00000   0.00000  -0.62847
  15        5PX         0.00000  -0.43275   0.00000  -1.04489   0.00000
  16        5PY        -0.43599   0.00000  -1.07375   0.00000   0.00000
  17        5PZ         0.00000   0.00000   0.00000   0.00000   0.18121
  18        6D 0        0.00000   0.00000   0.00000   0.00000  -0.00604
  19        6D+1        0.00000   0.00745   0.00000   0.01451   0.00000
  20        6D-1        0.00551   0.00000   0.01534   0.00000   0.00000
  21        6D+2        0.00000   0.00000   0.00000   0.00000  -0.00222
  22        6D-2        0.00000   0.00000   0.00000   0.00000   0.00000
  23        7D 0        0.00000   0.00000   0.00000   0.00000  -0.21296
  24        7D+1        0.00000   0.12127   0.00000  -0.05409   0.00000
  25        7D-1        0.09435   0.00000  -0.04808   0.00000   0.00000
  26        7D+2        0.00000   0.00000   0.00000   0.00000   0.17136
  27        7D-2        0.00000   0.00000   0.00000   0.00000   0.00000
  28 2   O  1S          0.00000   0.00000   0.00000   0.00000   0.07283
  29        2S          0.00000   0.00000   0.00000   0.00000   0.15249
  30        2PX         0.00000  -0.15986   0.00000   0.17552   0.00000
  31        2PY        -0.16183   0.00000   0.16329   0.00000   0.00000
  32        2PZ         0.00000   0.00000   0.00000   0.00000   0.04347
  33        3S          0.00000   0.00000   0.00000   0.00000  -1.10467
  34        3PX         0.00000  -0.61289   0.00000   0.62209   0.00000
  35        3PY        -0.60134   0.00000   0.58696   0.00000   0.00000
  36        3PZ         0.00000   0.00000   0.00000   0.00000   0.13247
  37        4S          0.00000   0.00000   0.00000   0.00000   1.58186
  38        4PX         0.00000   1.01124   0.00000  -1.58347   0.00000
  39        4PY         1.01953   0.00000  -1.61426   0.00000   0.00000
  40        4PZ         0.00000   0.00000   0.00000   0.00000  -0.19284
  41        5S          0.00000   0.00000   0.00000   0.00000  -0.62847
  42        5PX         0.00000  -0.43275   0.00000   1.04489   0.00000
  43        5PY        -0.43599   0.00000   1.07375   0.00000   0.00000
  44        5PZ         0.00000   0.00000   0.00000   0.00000  -0.18121
  45        6D 0        0.00000   0.00000   0.00000   0.00000  -0.00604
  46        6D+1        0.00000  -0.00745   0.00000   0.01451   0.00000
  47        6D-1       -0.00551   0.00000   0.01534   0.00000   0.00000
  48        6D+2        0.00000   0.00000   0.00000   0.00000  -0.00222
  49        6D-2        0.00000   0.00000   0.00000   0.00000   0.00000
  50        7D 0        0.00000   0.00000   0.00000   0.00000  -0.21296
  51        7D+1        0.00000  -0.12127   0.00000  -0.05409   0.00000
  52        7D-1       -0.09435   0.00000  -0.04808   0.00000   0.00000
  53        7D+2        0.00000   0.00000   0.00000   0.00000   0.17136
  54        7D-2        0.00000   0.00000   0.00000   0.00000   0.00000
                          26        27        28        29        30
                           V         V     (PIU)--V  (PIU)--V      V
     Eigenvalues --     1.45893   1.46471   1.58973   1.59275   1.75176
   1 1   O  1S          0.00000  -0.01949   0.00000   0.00000  -0.07964
   2        2S          0.00000  -0.04133   0.00000   0.00000  -0.17106
   3        2PX         0.00000   0.00000   0.08421   0.00000   0.00000
   4        2PY         0.00000   0.00000   0.00000   0.07191   0.00000
   5        2PZ         0.00000   0.01019   0.00000   0.00000  -0.02203
   6        3S          0.00000   0.30339   0.00000   0.00000   1.51574
   7        3PX         0.00000   0.00000   0.21023   0.00000   0.00000
   8        3PY         0.00000   0.00000   0.00000   0.16546   0.00000
   9        3PZ         0.00000   0.02255   0.00000   0.00000   0.21698
  10        4S          0.00000  -0.42570   0.00000   0.00000  -5.47172
  11        4PX         0.00000   0.00000  -0.02793   0.00000   0.00000
  12        4PY         0.00000   0.00000   0.00000   0.00678   0.00000
  13        4PZ         0.00000  -0.01822   0.00000   0.00000   2.07498
  14        5S          0.00000   0.16373   0.00000   0.00000  10.93570
  15        5PX         0.00000   0.00000  -0.00971   0.00000   0.00000
  16        5PY         0.00000   0.00000   0.00000  -0.02420   0.00000
  17        5PZ         0.00000  -0.06894   0.00000   0.00000  -3.42257
  18        6D 0        0.00000   0.00309   0.00000   0.00000   0.01441
  19        6D+1        0.00000   0.00000   0.01760   0.00000   0.00000
  20        6D-1        0.00000   0.00000   0.00000   0.02014   0.00000
  21        6D+2        0.00000   0.00169   0.00000   0.00000   0.00295
  22        6D-2        0.00103   0.00000   0.00000   0.00000   0.00000
  23        7D 0        0.00000   0.06335   0.00000   0.00000  -0.20368
  24        7D+1        0.00000   0.00000   0.58728   0.00000   0.00000
  25        7D-1        0.00000   0.00000   0.00000   0.59253   0.00000
  26        7D+2        0.00000   0.61857   0.00000   0.00000  -0.06279
  27        7D-2        0.64216   0.00000   0.00000   0.00000   0.00000
  28 2   O  1S          0.00000  -0.01949   0.00000   0.00000   0.07964
  29        2S          0.00000  -0.04133   0.00000   0.00000   0.17106
  30        2PX         0.00000   0.00000   0.08421   0.00000   0.00000
  31        2PY         0.00000   0.00000   0.00000   0.07191   0.00000
  32        2PZ         0.00000  -0.01019   0.00000   0.00000  -0.02203
  33        3S          0.00000   0.30339   0.00000   0.00000  -1.51574
  34        3PX         0.00000   0.00000   0.21023   0.00000   0.00000
  35        3PY         0.00000   0.00000   0.00000   0.16546   0.00000
  36        3PZ         0.00000  -0.02255   0.00000   0.00000   0.21698
  37        4S          0.00000  -0.42570   0.00000   0.00000   5.47172
  38        4PX         0.00000   0.00000  -0.02793   0.00000   0.00000
  39        4PY         0.00000   0.00000   0.00000   0.00678   0.00000
  40        4PZ         0.00000   0.01822   0.00000   0.00000   2.07498
  41        5S          0.00000   0.16373   0.00000   0.00000 -10.93570
  42        5PX         0.00000   0.00000  -0.00971   0.00000   0.00000
  43        5PY         0.00000   0.00000   0.00000  -0.02420   0.00000
  44        5PZ         0.00000   0.06894   0.00000   0.00000  -3.42257
  45        6D 0        0.00000   0.00309   0.00000   0.00000  -0.01441
  46        6D+1        0.00000   0.00000  -0.01760   0.00000   0.00000
  47        6D-1        0.00000   0.00000   0.00000  -0.02014   0.00000
  48        6D+2        0.00000   0.00169   0.00000   0.00000  -0.00295
  49        6D-2        0.00103   0.00000   0.00000   0.00000   0.00000
  50        7D 0        0.00000   0.06335   0.00000   0.00000   0.20368
  51        7D+1        0.00000   0.00000  -0.58728   0.00000   0.00000
  52        7D-1        0.00000   0.00000   0.00000  -0.59253   0.00000
  53        7D+2        0.00000   0.61857   0.00000   0.00000   0.06279
  54        7D-2        0.64216   0.00000   0.00000   0.00000   0.00000
                          31        32        33        34        35
                           V         V     (PIG)--V  (PIG)--V  (SGG)--V
     Eigenvalues --     1.92362   1.92464   2.56553   2.58739   2.60432
   1 1   O  1S          0.00000  -0.00627   0.00000   0.00000  -0.04217
   2        2S          0.00000  -0.01363   0.00000   0.00000  -0.10091
   3        2PX         0.00000   0.00000  -0.04304   0.00000   0.00000
   4        2PY         0.00000   0.00000   0.00000  -0.04288   0.00000
   5        2PZ         0.00000  -0.00145   0.00000   0.00000  -0.02333
   6        3S          0.00000   0.12060   0.00000   0.00000   0.99150
   7        3PX         0.00000   0.00000  -0.03680   0.00000   0.00000
   8        3PY         0.00000   0.00000   0.00000  -0.03009   0.00000
   9        3PZ         0.00000   0.02390   0.00000   0.00000  -0.58194
  10        4S          0.00000  -0.46373   0.00000   0.00000  -0.45451
  11        4PX         0.00000   0.00000  -0.91963   0.00000   0.00000
  12        4PY         0.00000   0.00000   0.00000  -0.92719   0.00000
  13        4PZ         0.00000   0.18426   0.00000   0.00000   0.81927
  14        5S          0.00000   0.86535   0.00000   0.00000   0.01246
  15        5PX         0.00000   0.00000   0.27714   0.00000   0.00000
  16        5PY         0.00000   0.00000   0.00000   0.28095   0.00000
  17        5PZ         0.00000  -0.27208   0.00000   0.00000  -0.25589
  18        6D 0        0.00000   0.00204   0.00000   0.00000  -0.00914
  19        6D+1        0.00000   0.00000  -0.00687   0.00000   0.00000
  20        6D-1        0.00000   0.00000   0.00000  -0.00507   0.00000
  21        6D+2        0.00000   0.00358   0.00000   0.00000   0.00112
  22        6D-2        0.00334   0.00000   0.00000   0.00000   0.00000
  23        7D 0        0.00000  -0.02836   0.00000   0.00000  -0.88969
  24        7D+1        0.00000   0.00000   1.24943   0.00000   0.00000
  25        7D-1        0.00000   0.00000   0.00000   1.24794   0.00000
  26        7D+2        0.00000   0.79172   0.00000   0.00000   0.00124
  27        7D-2        0.79422   0.00000   0.00000   0.00000   0.00000
  28 2   O  1S          0.00000   0.00627   0.00000   0.00000  -0.04217
  29        2S          0.00000   0.01363   0.00000   0.00000  -0.10091
  30        2PX         0.00000   0.00000   0.04304   0.00000   0.00000
  31        2PY         0.00000   0.00000   0.00000   0.04288   0.00000
  32        2PZ         0.00000  -0.00145   0.00000   0.00000   0.02333
  33        3S          0.00000  -0.12060   0.00000   0.00000   0.99150
  34        3PX         0.00000   0.00000   0.03680   0.00000   0.00000
  35        3PY         0.00000   0.00000   0.00000   0.03009   0.00000
  36        3PZ         0.00000   0.02390   0.00000   0.00000   0.58194
  37        4S          0.00000   0.46373   0.00000   0.00000  -0.45451
  38        4PX         0.00000   0.00000   0.91963   0.00000   0.00000
  39        4PY         0.00000   0.00000   0.00000   0.92719   0.00000
  40        4PZ         0.00000   0.18426   0.00000   0.00000  -0.81927
  41        5S          0.00000  -0.86535   0.00000   0.00000   0.01246
  42        5PX         0.00000   0.00000  -0.27714   0.00000   0.00000
  43        5PY         0.00000   0.00000   0.00000  -0.28095   0.00000
  44        5PZ         0.00000  -0.27208   0.00000   0.00000   0.25589
  45        6D 0        0.00000  -0.00204   0.00000   0.00000  -0.00914
  46        6D+1        0.00000   0.00000  -0.00687   0.00000   0.00000
  47        6D-1        0.00000   0.00000   0.00000  -0.00507   0.00000
  48        6D+2        0.00000  -0.00358   0.00000   0.00000   0.00112
  49        6D-2       -0.00334   0.00000   0.00000   0.00000   0.00000
  50        7D 0        0.00000   0.02836   0.00000   0.00000  -0.88969
  51        7D+1        0.00000   0.00000   1.24943   0.00000   0.00000
  52        7D-1        0.00000   0.00000   0.00000   1.24794   0.00000
  53        7D+2        0.00000  -0.79172   0.00000   0.00000   0.00124
  54        7D-2       -0.79422   0.00000   0.00000   0.00000   0.00000
                          36        37        38        39        40
                       (SGU)--V  (PIU)--V  (PIU)--V  (SGG)--V  (PIG)--V
     Eigenvalues --     2.81470   5.25174   5.26393   5.37136   5.53328
   1 1   O  1S         -0.01417   0.00000   0.00000  -0.00799   0.00000
   2        2S         -0.02718   0.00000   0.00000  -0.00912   0.00000
   3        2PX         0.00000  -0.90399   0.00000   0.00000  -0.91650
   4        2PY         0.00000   0.00000  -0.90018   0.00000   0.00000
   5        2PZ        -0.19553   0.00000   0.00000  -0.89821   0.00000
   6        3S         -0.23035   0.00000   0.00000  -0.04629   0.00000
   7        3PX         0.00000   1.03329   0.00000   0.00000   1.11730
   8        3PY         0.00000   0.00000   1.04198   0.00000   0.00000
   9        3PZ        -0.77868   0.00000   0.00000   0.97505   0.00000
  10        4S          6.41613   0.00000   0.00000  -0.10440   0.00000
  11        4PX         0.00000  -0.50786   0.00000   0.00000  -0.64780
  12        4PY         0.00000   0.00000  -0.51175   0.00000   0.00000
  13        4PZ        -3.81253   0.00000   0.00000  -0.62752   0.00000
  14        5S         -3.64367   0.00000   0.00000   0.09983   0.00000
  15        5PX         0.00000   0.16635   0.00000   0.00000   0.37042
  16        5PY         0.00000   0.00000   0.16732   0.00000   0.00000
  17        5PZ         1.40753   0.00000   0.00000   0.26272   0.00000
  18        6D 0       -0.01049   0.00000   0.00000  -0.12987   0.00000
  19        6D+1        0.00000  -0.01763   0.00000   0.00000   0.02188
  20        6D-1        0.00000   0.00000  -0.01823   0.00000   0.00000
  21        6D+2        0.00062   0.00000   0.00000   0.00092   0.00000
  22        6D-2        0.00000   0.00000   0.00000   0.00000   0.00000
  23        7D 0        1.67369   0.00000   0.00000   0.19231   0.00000
  24        7D+1        0.00000   0.06407   0.00000   0.00000  -0.14575
  25        7D-1        0.00000   0.00000   0.06554   0.00000   0.00000
  26        7D+2        0.00484   0.00000   0.00000   0.00009   0.00000
  27        7D-2        0.00000   0.00000   0.00000   0.00000   0.00000
  28 2   O  1S          0.01417   0.00000   0.00000  -0.00799   0.00000
  29        2S          0.02718   0.00000   0.00000  -0.00912   0.00000
  30        2PX         0.00000  -0.90399   0.00000   0.00000   0.91650
  31        2PY         0.00000   0.00000  -0.90018   0.00000   0.00000
  32        2PZ        -0.19553   0.00000   0.00000   0.89821   0.00000
  33        3S          0.23035   0.00000   0.00000  -0.04629   0.00000
  34        3PX         0.00000   1.03329   0.00000   0.00000  -1.11730
  35        3PY         0.00000   0.00000   1.04198   0.00000   0.00000
  36        3PZ        -0.77868   0.00000   0.00000  -0.97505   0.00000
  37        4S         -6.41613   0.00000   0.00000  -0.10440   0.00000
  38        4PX         0.00000  -0.50786   0.00000   0.00000   0.64780
  39        4PY         0.00000   0.00000  -0.51175   0.00000   0.00000
  40        4PZ        -3.81253   0.00000   0.00000   0.62752   0.00000
  41        5S          3.64367   0.00000   0.00000   0.09983   0.00000
  42        5PX         0.00000   0.16635   0.00000   0.00000  -0.37042
  43        5PY         0.00000   0.00000   0.16732   0.00000   0.00000
  44        5PZ         1.40753   0.00000   0.00000  -0.26272   0.00000
  45        6D 0        0.01049   0.00000   0.00000  -0.12987   0.00000
  46        6D+1        0.00000   0.01763   0.00000   0.00000   0.02188
  47        6D-1        0.00000   0.00000   0.01823   0.00000   0.00000
  48        6D+2       -0.00062   0.00000   0.00000   0.00092   0.00000
  49        6D-2        0.00000   0.00000   0.00000   0.00000   0.00000
  50        7D 0       -1.67369   0.00000   0.00000   0.19231   0.00000
  51        7D+1        0.00000  -0.06407   0.00000   0.00000  -0.14575
  52        7D-1        0.00000   0.00000  -0.06554   0.00000   0.00000
  53        7D+2       -0.00484   0.00000   0.00000   0.00009   0.00000
  54        7D-2        0.00000   0.00000   0.00000   0.00000   0.00000
                          41        42        43        44        45
                       (PIG)--V  (SGU)--V      V         V     (DLTU)--
     Eigenvalues --     5.55186   6.76577   7.06714   7.06873   7.19152
   1 1   O  1S          0.00000  -0.02585   0.00129   0.00000   0.00153
   2        2S          0.00000  -0.04254   0.00235   0.00000   0.00138
   3        2PX         0.00000   0.00000   0.00000   0.00000   0.00000
   4        2PY        -0.91269   0.00000   0.00000   0.00000   0.00000
   5        2PZ         0.00000   0.96823   0.01758   0.00000  -0.02476
   6        3S          0.00000  -0.05259  -0.03598   0.00000  -0.00595
   7        3PX         0.00000   0.00000   0.00000   0.00000   0.00000
   8        3PY         1.12528   0.00000   0.00000   0.00000   0.00000
   9        3PZ         0.00000  -2.06013  -0.00079   0.00000   0.04692
  10        4S          0.00000   4.30224   0.00960   0.00000  -0.03729
  11        4PX         0.00000   0.00000   0.00000   0.00000   0.00000
  12        4PY        -0.65161   0.00000   0.00000   0.00000   0.00000
  13        4PZ         0.00000  -1.86070  -0.01520   0.00000   0.00675
  14        5S          0.00000  -3.88168   0.00226   0.00000   0.05380
  15        5PX         0.00000   0.00000   0.00000   0.00000   0.00000
  16        5PY         0.37200   0.00000   0.00000   0.00000   0.00000
  17        5PZ         0.00000   1.24276  -0.00469   0.00000  -0.01492
  18        6D 0        0.00000  -0.20930  -0.07644   0.00000  -0.01660
  19        6D+1        0.00000   0.00000   0.00000   0.00000   0.00000
  20        6D-1        0.02099   0.00000   0.00000   0.00000   0.00000
  21        6D+2        0.00000   0.01533   0.78783   0.00000   0.80306
  22        6D-2        0.00000   0.00000   0.00000   0.79112   0.00000
  23        7D 0        0.00000   1.23755   0.05987   0.00000  -0.01255
  24        7D+1        0.00000   0.00000   0.00000   0.00000   0.00000
  25        7D-1       -0.14695   0.00000   0.00000   0.00000   0.00000
  26        7D+2        0.00000  -0.00725  -0.32345   0.00000  -0.43073
  27        7D-2        0.00000   0.00000   0.00000  -0.32483   0.00000
  28 2   O  1S          0.00000   0.02585   0.00129   0.00000  -0.00153
  29        2S          0.00000   0.04254   0.00235   0.00000  -0.00138
  30        2PX         0.00000   0.00000   0.00000   0.00000   0.00000
  31        2PY         0.91269   0.00000   0.00000   0.00000   0.00000
  32        2PZ         0.00000   0.96823  -0.01758   0.00000  -0.02476
  33        3S          0.00000   0.05259  -0.03598   0.00000   0.00595
  34        3PX         0.00000   0.00000   0.00000   0.00000   0.00000
  35        3PY        -1.12528   0.00000   0.00000   0.00000   0.00000
  36        3PZ         0.00000  -2.06013   0.00079   0.00000   0.04692
  37        4S          0.00000  -4.30224   0.00960   0.00000   0.03729
  38        4PX         0.00000   0.00000   0.00000   0.00000   0.00000
  39        4PY         0.65161   0.00000   0.00000   0.00000   0.00000
  40        4PZ         0.00000  -1.86070   0.01520   0.00000   0.00675
  41        5S          0.00000   3.88168   0.00226   0.00000  -0.05380
  42        5PX         0.00000   0.00000   0.00000   0.00000   0.00000
  43        5PY        -0.37200   0.00000   0.00000   0.00000   0.00000
  44        5PZ         0.00000   1.24276   0.00469   0.00000  -0.01492
  45        6D 0        0.00000   0.20930  -0.07644   0.00000   0.01660
  46        6D+1        0.00000   0.00000   0.00000   0.00000   0.00000
  47        6D-1        0.02099   0.00000   0.00000   0.00000   0.00000
  48        6D+2        0.00000  -0.01533   0.78783   0.00000  -0.80306
  49        6D-2        0.00000   0.00000   0.00000   0.79112   0.00000
  50        7D 0        0.00000  -1.23755   0.05987   0.00000   0.01255
  51        7D+1        0.00000   0.00000   0.00000   0.00000   0.00000
  52        7D-1       -0.14695   0.00000   0.00000   0.00000   0.00000
  53        7D+2        0.00000   0.00725  -0.32345   0.00000   0.43073
  54        7D-2        0.00000   0.00000   0.00000  -0.32483   0.00000
                          46        47        48        49        50
                       (DLTU)--  (PIU)--V  (PIU)--V      V     (PIG)--V
     Eigenvalues --     7.19170   7.22149   7.25883   7.26835   7.32329
   1 1   O  1S          0.00000   0.00000   0.00000  -0.00603   0.00000
   2        2S          0.00000   0.00000   0.00000  -0.02200   0.00000
   3        2PX         0.00000  -0.01577   0.00000   0.00000   0.01770
   4        2PY         0.00000   0.00000  -0.01693   0.00000   0.00000
   5        2PZ         0.00000   0.00000   0.00000  -0.18097   0.00000
   6        3S          0.00000   0.00000   0.00000   0.33938   0.00000
   7        3PX         0.00000  -0.01468   0.00000   0.00000   0.02452
   8        3PY         0.00000   0.00000  -0.01531   0.00000   0.00000
   9        3PZ         0.00000   0.00000   0.00000   0.00338   0.00000
  10        4S          0.00000   0.00000   0.00000  -0.04461   0.00000
  11        4PX         0.00000  -0.05676   0.00000   0.00000   0.37061
  12        4PY         0.00000   0.00000  -0.05677   0.00000   0.00000
  13        4PZ         0.00000   0.00000   0.00000   0.16650   0.00000
  14        5S          0.00000   0.00000   0.00000  -0.04134   0.00000
  15        5PX         0.00000   0.02767   0.00000   0.00000  -0.09484
  16        5PY         0.00000   0.00000   0.02766   0.00000   0.00000
  17        5PZ         0.00000   0.00000   0.00000   0.05427   0.00000
  18        6D 0        0.00000   0.00000   0.00000   0.83825   0.00000
  19        6D+1        0.00000   0.81157   0.00000   0.00000   0.81802
  20        6D-1        0.00000   0.00000   0.81154   0.00000   0.00000
  21        6D+2        0.00000   0.00000   0.00000   0.07196   0.00000
  22        6D-2        0.80348   0.00000   0.00000   0.00000   0.00000
  23        7D 0        0.00000   0.00000   0.00000  -0.65275   0.00000
  24        7D+1        0.00000  -0.37273   0.00000   0.00000  -0.67049
  25        7D-1        0.00000   0.00000  -0.37382   0.00000   0.00000
  26        7D+2        0.00000   0.00000   0.00000  -0.02989   0.00000
  27        7D-2       -0.43095   0.00000   0.00000   0.00000   0.00000
  28 2   O  1S          0.00000   0.00000   0.00000  -0.00603   0.00000
  29        2S          0.00000   0.00000   0.00000  -0.02200   0.00000
  30        2PX         0.00000  -0.01577   0.00000   0.00000  -0.01770
  31        2PY         0.00000   0.00000  -0.01693   0.00000   0.00000
  32        2PZ         0.00000   0.00000   0.00000   0.18097   0.00000
  33        3S          0.00000   0.00000   0.00000   0.33938   0.00000
  34        3PX         0.00000  -0.01468   0.00000   0.00000  -0.02452
  35        3PY         0.00000   0.00000  -0.01531   0.00000   0.00000
  36        3PZ         0.00000   0.00000   0.00000  -0.00338   0.00000
  37        4S          0.00000   0.00000   0.00000  -0.04461   0.00000
  38        4PX         0.00000  -0.05676   0.00000   0.00000  -0.37061
  39        4PY         0.00000   0.00000  -0.05677   0.00000   0.00000
  40        4PZ         0.00000   0.00000   0.00000  -0.16650   0.00000
  41        5S          0.00000   0.00000   0.00000  -0.04134   0.00000
  42        5PX         0.00000   0.02767   0.00000   0.00000   0.09484
  43        5PY         0.00000   0.00000   0.02766   0.00000   0.00000
  44        5PZ         0.00000   0.00000   0.00000  -0.05427   0.00000
  45        6D 0        0.00000   0.00000   0.00000   0.83825   0.00000
  46        6D+1        0.00000  -0.81157   0.00000   0.00000   0.81802
  47        6D-1        0.00000   0.00000  -0.81154   0.00000   0.00000
  48        6D+2        0.00000   0.00000   0.00000   0.07196   0.00000
  49        6D-2       -0.80348   0.00000   0.00000   0.00000   0.00000
  50        7D 0        0.00000   0.00000   0.00000  -0.65275   0.00000
  51        7D+1        0.00000   0.37273   0.00000   0.00000  -0.67049
  52        7D-1        0.00000   0.00000   0.37382   0.00000   0.00000
  53        7D+2        0.00000   0.00000   0.00000  -0.02989   0.00000
  54        7D-2        0.43095   0.00000   0.00000   0.00000   0.00000
                          51        52        53        54
                       (PIG)--V  (SGU)--V  (SGG)--V  (SGU)--V
     Eigenvalues --     7.35545   7.83731  51.35446  51.47130
   1 1   O  1S          0.00000   0.01223  -1.58945  -1.58895
   2        2S          0.00000   0.01068   1.65175   1.65671
   3        2PX         0.00000   0.00000   0.00000   0.00000
   4        2PY         0.01698   0.00000   0.00000   0.00000
   5        2PZ         0.00000  -0.25336   0.00754  -0.03137
   6        3S          0.00000  -0.05627  -0.21792  -0.20692
   7        3PX         0.00000   0.00000   0.00000   0.00000
   8        3PY         0.02612   0.00000   0.00000   0.00000
   9        3PZ         0.00000   0.30760   0.01498   0.08884
  10        4S          0.00000   1.13124   0.16610   0.19586
  11        4PX         0.00000   0.00000   0.00000   0.00000
  12        4PY         0.37129   0.00000   0.00000   0.00000
  13        4PZ         0.00000  -0.93809  -0.03760  -0.02666
  14        5S          0.00000   0.27680  -0.04864  -0.71570
  15        5PX         0.00000   0.00000   0.00000   0.00000
  16        5PY        -0.09478   0.00000   0.00000   0.00000
  17        5PZ         0.00000   0.01761   0.02906   0.21634
  18        6D 0        0.00000  -0.79847  -0.01464  -0.00139
  19        6D+1        0.00000   0.00000   0.00000   0.00000
  20        6D-1        0.81805   0.00000   0.00000   0.00000
  21        6D+2        0.00000  -0.02067   0.00018   0.00019
  22        6D-2        0.00000   0.00000   0.00000   0.00000
  23        7D 0        0.00000   0.45092   0.04988  -0.05607
  24        7D+1        0.00000   0.00000   0.00000   0.00000
  25        7D-1       -0.67343   0.00000   0.00000   0.00000
  26        7D+2        0.00000   0.01175  -0.00005  -0.00008
  27        7D-2        0.00000   0.00000   0.00000   0.00000
  28 2   O  1S          0.00000  -0.01223  -1.58945   1.58895
  29        2S          0.00000  -0.01068   1.65175  -1.65671
  30        2PX         0.00000   0.00000   0.00000   0.00000
  31        2PY        -0.01698   0.00000   0.00000   0.00000
  32        2PZ         0.00000  -0.25336  -0.00754  -0.03137
  33        3S          0.00000   0.05627  -0.21792   0.20692
  34        3PX         0.00000   0.00000   0.00000   0.00000
  35        3PY        -0.02612   0.00000   0.00000   0.00000
  36        3PZ         0.00000   0.30760  -0.01498   0.08884
  37        4S          0.00000  -1.13124   0.16610  -0.19586
  38        4PX         0.00000   0.00000   0.00000   0.00000
  39        4PY        -0.37129   0.00000   0.00000   0.00000
  40        4PZ         0.00000  -0.93809   0.03760  -0.02666
  41        5S          0.00000  -0.27680  -0.04864   0.71570
  42        5PX         0.00000   0.00000   0.00000   0.00000
  43        5PY         0.09478   0.00000   0.00000   0.00000
  44        5PZ         0.00000   0.01761  -0.02906   0.21634
  45        6D 0        0.00000   0.79847  -0.01464   0.00139
  46        6D+1        0.00000   0.00000   0.00000   0.00000
  47        6D-1        0.81805   0.00000   0.00000   0.00000
  48        6D+2        0.00000   0.02067   0.00018  -0.00019
  49        6D-2        0.00000   0.00000   0.00000   0.00000
  50        7D 0        0.00000  -0.45092   0.04988   0.05607
  51        7D+1        0.00000   0.00000   0.00000   0.00000
  52        7D-1       -0.67343   0.00000   0.00000   0.00000
  53        7D+2        0.00000  -0.01175  -0.00005   0.00008
  54        7D-2        0.00000   0.00000   0.00000   0.00000
     Density Matrix:
                           1         2         3         4         5
   1 1   O  1S          0.63921
   2        2S          0.57217   0.53215
   3        2PX        -0.00000  -0.00000   0.07275
   4        2PY        -0.00000  -0.00000   0.00000   0.20676
   5        2PZ        -0.01475  -0.02334   0.00000  -0.00000   0.10739
   6        3S         -0.14731  -0.25240   0.00000   0.00000   0.06776
   7        3PX        -0.00000  -0.00000   0.11760   0.00000   0.00000
   8        3PY        -0.00000  -0.00000   0.00000   0.31953  -0.00000
   9        3PZ        -0.01507  -0.02695   0.00000  -0.00000   0.16823
  10        4S         -0.13138  -0.21948   0.00000   0.00000   0.12452
  11        4PX        -0.00000  -0.00000   0.09414   0.00000  -0.00000
  12        4PY        -0.00000  -0.00000   0.00000   0.27410  -0.00000
  13        4PZ        -0.00920  -0.01625  -0.00000  -0.00000   0.09198
  14        5S          0.03817   0.06188  -0.00000  -0.00000  -0.01477
  15        5PX        -0.00000  -0.00000   0.00490   0.00000   0.00000
  16        5PY        -0.00000  -0.00000   0.00000   0.03405  -0.00000
  17        5PZ        -0.01368  -0.02236   0.00000  -0.00000   0.00568
  18        6D 0       -0.00030  -0.00057  -0.00000  -0.00000  -0.00782
  19        6D+1       -0.00000  -0.00000  -0.00414   0.00000  -0.00000
  20        6D-1       -0.00000  -0.00000   0.00000  -0.00246  -0.00000
  21        6D+2       -0.00007   0.00008  -0.00000   0.00000  -0.00027
  22        6D-2        0.00000   0.00000  -0.00000  -0.00000   0.00000
  23        7D 0       -0.00187  -0.00268   0.00000  -0.00000  -0.01496
  24        7D+1       -0.00000  -0.00000  -0.01697   0.00000  -0.00000
  25        7D-1       -0.00000  -0.00000   0.00000  -0.00669  -0.00000
  26        7D+2       -0.00008   0.00005  -0.00000   0.00000  -0.00122
  27        7D-2        0.00000   0.00000  -0.00000  -0.00000   0.00000
  28 2   O  1S          0.00039   0.00037   0.00000   0.00000   0.01305
  29        2S          0.00037   0.00019   0.00000   0.00000   0.02176
  30        2PX        -0.00000  -0.00000   0.07275   0.00000  -0.00000
  31        2PY        -0.00000  -0.00000   0.00000  -0.02791  -0.00000
  32        2PZ        -0.01305  -0.02176  -0.00000  -0.00000  -0.08590
  33        3S          0.00160   0.00398  -0.00000  -0.00000  -0.06224
  34        3PX        -0.00000  -0.00000   0.11760   0.00000  -0.00000
  35        3PY        -0.00000  -0.00000   0.00000  -0.04087  -0.00000
  36        3PZ        -0.01875  -0.03171  -0.00000  -0.00000  -0.13827
  37        4S          0.03201   0.05339  -0.00000  -0.00000  -0.00966
  38        4PX         0.00000   0.00000   0.09414   0.00000  -0.00000
  39        4PY         0.00000   0.00000   0.00000  -0.08442  -0.00000
  40        4PZ         0.00257   0.00379  -0.00000  -0.00000  -0.08515
  41        5S         -0.03710  -0.06038   0.00000   0.00000   0.04359
  42        5PX        -0.00000  -0.00000   0.00490   0.00000   0.00000
  43        5PY        -0.00000  -0.00000   0.00000  -0.03001   0.00000
  44        5PZ        -0.01120  -0.01817   0.00000   0.00000   0.01372
  45        6D 0       -0.00190  -0.00326  -0.00000  -0.00000  -0.00649
  46        6D+1       -0.00000  -0.00000   0.00414   0.00000  -0.00000
  47        6D-1       -0.00000  -0.00000   0.00000   0.00523  -0.00000
  48        6D+2       -0.00006  -0.00011   0.00000  -0.00000  -0.00007
  49        6D-2        0.00000   0.00000   0.00000   0.00000   0.00000
  50        7D 0       -0.00250  -0.00446  -0.00000  -0.00000  -0.01372
  51        7D+1       -0.00000  -0.00000   0.01697   0.00000  -0.00000
  52        7D-1       -0.00000  -0.00000   0.00000   0.01522  -0.00000
  53        7D+2       -0.00072  -0.00126   0.00000  -0.00000  -0.00045
  54        7D-2        0.00000   0.00000   0.00000   0.00000   0.00000
                           6         7         8         9        10
   6        3S          0.76123
   7        3PX         0.00000   0.19008
   8        3PY         0.00000   0.00000   0.49385
   9        3PZ         0.08970   0.00000  -0.00000   0.26402
  10        4S          0.64824   0.00000   0.00000   0.18112   0.61055
  11        4PX         0.00000   0.15217   0.00000  -0.00000   0.00000
  12        4PY         0.00000   0.00000   0.42308  -0.00000   0.00000
  13        4PZ         0.05249  -0.00000  -0.00000   0.14479   0.09312
  14        5S         -0.17787  -0.00000  -0.00000  -0.01780  -0.17477
  15        5PX         0.00000   0.00791   0.00000  -0.00000   0.00000
  16        5PY         0.00000   0.00000   0.05233  -0.00000   0.00000
  17        5PZ         0.06474  -0.00000  -0.00000   0.00706   0.06222
  18        6D 0        0.00160  -0.00000  -0.00000  -0.01236  -0.00459
  19        6D+1        0.00000  -0.00669   0.00000  -0.00000  -0.00000
  20        6D-1        0.00000   0.00000  -0.00387  -0.00000  -0.00000
  21        6D+2       -0.00088  -0.00000   0.00000  -0.00041  -0.00091
  22        6D-2        0.00000  -0.00000  -0.00000   0.00000   0.00000
  23        7D 0        0.00598   0.00000  -0.00000  -0.02376  -0.00576
  24        7D+1        0.00000  -0.02742   0.00000  -0.00000  -0.00000
  25        7D-1        0.00000   0.00000  -0.01052  -0.00000  -0.00000
  26        7D+2       -0.00083  -0.00000   0.00000  -0.00189  -0.00191
  27        7D-2        0.00000  -0.00000  -0.00000   0.00000   0.00000
  28 2   O  1S          0.00160   0.00000   0.00000   0.01875   0.03201
  29        2S          0.00398   0.00000   0.00000   0.03171   0.05339
  30        2PX         0.00000   0.11760   0.00000  -0.00000   0.00000
  31        2PY         0.00000   0.00000  -0.04087  -0.00000   0.00000
  32        2PZ         0.06224  -0.00000  -0.00000  -0.13827   0.00966
  33        3S         -0.02580  -0.00000  -0.00000  -0.09170  -0.16375
  34        3PX         0.00000   0.19008   0.00000  -0.00000   0.00000
  35        3PY         0.00000   0.00000  -0.05964  -0.00000   0.00000
  36        3PZ         0.09170  -0.00000  -0.00000  -0.22221   0.00603
  37        4S         -0.16375  -0.00000  -0.00000  -0.00603  -0.22735
  38        4PX        -0.00000   0.15217   0.00000  -0.00000  -0.00000
  39        4PY        -0.00000   0.00000  -0.12753  -0.00000  -0.00000
  40        4PZ        -0.01110  -0.00000  -0.00000  -0.13525  -0.05044
  41        5S          0.17514   0.00000   0.00000   0.06356   0.18957
  42        5PX         0.00000   0.00791   0.00000   0.00000   0.00000
  43        5PY         0.00000   0.00000  -0.04604   0.00000   0.00000
  44        5PZ         0.05265   0.00000   0.00000   0.01999   0.05893
  45        6D 0        0.00962  -0.00000  -0.00000  -0.01051   0.00369
  46        6D+1        0.00000   0.00669   0.00000  -0.00000   0.00000
  47        6D-1        0.00000   0.00000   0.00812  -0.00000   0.00000
  48        6D+2        0.00037   0.00000  -0.00000  -0.00012   0.00038
  49        6D-2        0.00000   0.00000   0.00000   0.00000   0.00000
  50        7D 0        0.01353  -0.00000  -0.00000  -0.02202   0.00202
  51        7D+1        0.00000   0.02742   0.00000  -0.00000   0.00000
  52        7D-1        0.00000   0.00000   0.02362  -0.00000   0.00000
  53        7D+2        0.00390   0.00000  -0.00000  -0.00080   0.00296
  54        7D-2        0.00000   0.00000   0.00000   0.00000   0.00000
                          11        12        13        14        15
  11        4PX         0.12182
  12        4PY         0.00000   0.37445
  13        4PZ        -0.00000  -0.00000   0.08459
  14        5S          0.00000   0.00000   0.00379   0.08138
  15        5PX         0.00634   0.00000  -0.00000  -0.00000   0.00033
  16        5PY         0.00000   0.05107  -0.00000  -0.00000   0.00000
  17        5PZ        -0.00000  -0.00000  -0.00011  -0.02697   0.00000
  18        6D 0        0.00000  -0.00000  -0.00631   0.00070   0.00000
  19        6D+1       -0.00536   0.00000  -0.00000   0.00000  -0.00028
  20        6D-1        0.00000  -0.00197  -0.00000   0.00000   0.00000
  21        6D+2       -0.00000   0.00000  -0.00021   0.00025  -0.00000
  22        6D-2       -0.00000  -0.00000   0.00000   0.00000  -0.00000
  23        7D 0        0.00000  -0.00000  -0.01253  -0.00050   0.00000
  24        7D+1       -0.02195   0.00000   0.00000  -0.00000  -0.00114
  25        7D-1        0.00000  -0.00510  -0.00000   0.00000   0.00000
  26        7D+2       -0.00000   0.00000  -0.00077   0.00093  -0.00000
  27        7D-2       -0.00000  -0.00000   0.00000   0.00000  -0.00000
  28 2   O  1S         -0.00000  -0.00000  -0.00257  -0.03710   0.00000
  29        2S         -0.00000  -0.00000  -0.00379  -0.06038   0.00000
  30        2PX         0.09414   0.00000  -0.00000  -0.00000   0.00490
  31        2PY         0.00000  -0.08442  -0.00000  -0.00000   0.00000
  32        2PZ        -0.00000  -0.00000  -0.08515  -0.04359   0.00000
  33        3S          0.00000   0.00000   0.01110   0.17514  -0.00000
  34        3PX         0.15217   0.00000  -0.00000  -0.00000   0.00791
  35        3PY         0.00000  -0.12753  -0.00000  -0.00000   0.00000
  36        3PZ        -0.00000  -0.00000  -0.13525  -0.06356   0.00000
  37        4S          0.00000   0.00000   0.05044   0.18957  -0.00000
  38        4PX         0.12182   0.00000  -0.00000  -0.00000   0.00634
  39        4PY         0.00000  -0.17329   0.00000  -0.00000   0.00000
  40        4PZ        -0.00000   0.00000  -0.08241  -0.02234  -0.00000
  41        5S          0.00000   0.00000   0.02234  -0.07707   0.00000
  42        5PX         0.00634   0.00000  -0.00000  -0.00000   0.00033
  43        5PY         0.00000  -0.04679   0.00000  -0.00000   0.00000
  44        5PZ        -0.00000   0.00000   0.00628  -0.02571   0.00000
  45        6D 0       -0.00000  -0.00000  -0.00588  -0.00289   0.00000
  46        6D+1        0.00536   0.00000  -0.00000  -0.00000   0.00028
  47        6D-1        0.00000   0.00619  -0.00000  -0.00000   0.00000
  48        6D+2        0.00000  -0.00000  -0.00014  -0.00030   0.00000
  49        6D-2        0.00000   0.00000   0.00000   0.00000   0.00000
  50        7D 0       -0.00000  -0.00000  -0.01214  -0.00387  -0.00000
  51        7D+1        0.02195   0.00000  -0.00000  -0.00000   0.00114
  52        7D-1        0.00000   0.01814  -0.00000  -0.00000   0.00000
  53        7D+2        0.00000  -0.00000  -0.00052  -0.00119   0.00000
  54        7D-2        0.00000   0.00000   0.00000   0.00000   0.00000
                          16        17        18        19        20
  16        5PY         0.00879
  17        5PZ         0.00000   0.00903
  18        6D 0       -0.00000  -0.00020   0.00066
  19        6D+1        0.00000   0.00000   0.00000   0.00024
  20        6D-1        0.00029  -0.00000   0.00000   0.00000   0.00018
  21        6D+2       -0.00000  -0.00009   0.00001   0.00000  -0.00000
  22        6D-2        0.00000   0.00000   0.00000   0.00000   0.00000
  23        7D 0       -0.00000   0.00021   0.00126   0.00000   0.00000
  24        7D+1        0.00000   0.00000   0.00000   0.00097   0.00000
  25        7D-1        0.00092  -0.00000   0.00000   0.00000   0.00052
  26        7D+2       -0.00000  -0.00029   0.00011   0.00000  -0.00000
  27        7D-2        0.00000   0.00000   0.00000   0.00000   0.00000
  28 2   O  1S          0.00000   0.01120  -0.00190  -0.00000  -0.00000
  29        2S          0.00000   0.01817  -0.00326  -0.00000  -0.00000
  30        2PX         0.00000   0.00000   0.00000  -0.00414   0.00000
  31        2PY        -0.03001   0.00000   0.00000   0.00000  -0.00523
  32        2PZ         0.00000   0.01372   0.00649   0.00000   0.00000
  33        3S         -0.00000  -0.05265   0.00962   0.00000   0.00000
  34        3PX         0.00000   0.00000   0.00000  -0.00669   0.00000
  35        3PY        -0.04604   0.00000   0.00000   0.00000  -0.00812
  36        3PZ         0.00000   0.01999   0.01051   0.00000   0.00000
  37        4S         -0.00000  -0.05893   0.00369   0.00000   0.00000
  38        4PX         0.00000  -0.00000   0.00000  -0.00536   0.00000
  39        4PY        -0.04679   0.00000   0.00000   0.00000  -0.00619
  40        4PZ         0.00000   0.00628   0.00588   0.00000   0.00000
  41        5S          0.00000   0.02571  -0.00289  -0.00000  -0.00000
  42        5PX         0.00000   0.00000  -0.00000  -0.00028   0.00000
  43        5PY        -0.00870   0.00000  -0.00000   0.00000  -0.00046
  44        5PZ         0.00000   0.00849  -0.00099  -0.00000  -0.00000
  45        6D 0        0.00000   0.00099   0.00058   0.00000   0.00000
  46        6D+1        0.00000   0.00000   0.00000  -0.00024   0.00000
  47        6D-1        0.00046   0.00000   0.00000   0.00000  -0.00015
  48        6D+2       -0.00000   0.00010   0.00000  -0.00000   0.00000
  49        6D-2        0.00000   0.00000   0.00000  -0.00000  -0.00000
  50        7D 0       -0.00000   0.00133   0.00118   0.00000   0.00000
  51        7D+1        0.00000   0.00000   0.00000  -0.00097   0.00000
  52        7D-1        0.00141   0.00000   0.00000   0.00000  -0.00042
  53        7D+2       -0.00000   0.00041   0.00006  -0.00000   0.00000
  54        7D-2        0.00000   0.00000   0.00000  -0.00000  -0.00000
                          21        22        23        24        25
  21        6D+2        0.00000
  22        6D-2        0.00000   0.00000
  23        7D 0        0.00002   0.00000   0.00245
  24        7D+1        0.00000   0.00000  -0.00000   0.00396
  25        7D-1       -0.00000   0.00000   0.00000   0.00000   0.00150
  26        7D+2        0.00000   0.00000   0.00019   0.00000  -0.00000
  27        7D-2        0.00000   0.00000   0.00000   0.00000   0.00000
  28 2   O  1S         -0.00006   0.00000  -0.00250  -0.00000  -0.00000
  29        2S         -0.00011   0.00000  -0.00446  -0.00000  -0.00000
  30        2PX        -0.00000  -0.00000   0.00000  -0.01697   0.00000
  31        2PY         0.00000  -0.00000   0.00000   0.00000  -0.01522
  32        2PZ         0.00007   0.00000   0.01372   0.00000   0.00000
  33        3S          0.00037   0.00000   0.01353   0.00000   0.00000
  34        3PX        -0.00000  -0.00000   0.00000  -0.02742   0.00000
  35        3PY         0.00000  -0.00000   0.00000   0.00000  -0.02362
  36        3PZ         0.00012   0.00000   0.02202   0.00000   0.00000
[...]
  20        6D-1        0.00129
  21        6D+2        0.00000
  22        6D-2        0.00000
  23        7D 0        0.01679
  24        7D+1        0.02429
  25        7D-1        0.01774
  26        7D+2        0.00003
  27        7D-2        0.00000
  28 2   O  1S          1.08393
  29        2S          0.91180
  30        2PX         0.17430
  31        2PY         0.45259
  32        2PZ         0.25958
  33        3S          1.06456
  34        3PX         0.43060
  35        3PY         0.92880
  36        3PZ         0.61561
  37        4S          0.85322
  38        4PX         0.35764
  39        4PY         0.58056
  40        4PZ         0.19657
  41        5S         -0.05973
  42        5PX         0.01166
  43        5PY         0.01904
  44        5PZ         0.05380
  45        6D 0        0.00383
  46        6D+1        0.00151
  47        6D-1        0.00129
  48        6D+2        0.00000
  49        6D-2        0.00000
  50        7D 0        0.01679
  51        7D+1        0.02429
  52        7D-1        0.01774
  53        7D+2        0.00003
  54        7D-2        0.00000
          Condensed to atoms (all electrons):
               1          2
     1  O    7.683013   0.316987
     2  O    0.316987   7.683013
 Mulliken charges:
               1
     1  O    0.000000
     2  O    0.000000
 Sum of Mulliken charges =   0.00000
 Mulliken charges with hydrogens summed into heavy atoms:
               1
     1  O    0.000000
     2  O    0.000000
 APT charges:
               1
     1  O   -0.000000
     2  O   -0.000000
 Sum of APT charges =  -0.00000
 APT charges with hydrogens summed into heavy atoms:
               1
     1  O   -0.000000
     2  O   -0.000000
 Electronic spatial extent (au):  <R**2>=             41.8876
 Charge=              0.0000 electrons
 Dipole moment (field-independent basis, Debye):
    X=             -0.0000    Y=              0.0000    Z=             -0.0000  Tot=              0.0000
 Quadrupole moment (field-independent basis, Debye-Ang):
   XX=             -9.1756   YY=            -10.8836   ZZ=            -10.5463
   XY=              0.0000   XZ=              0.0000   YZ=              0.0000
 Traceless Quadrupole moment (field-independent basis, Debye-Ang):
   XX=              1.0262   YY=             -0.6818   ZZ=             -0.3445
   XY=              0.0000   XZ=              0.0000   YZ=              0.0000
 Octapole moment (field-independent basis, Debye-Ang**2):
  XXX=             -0.0000  YYY=              0.0000  ZZZ=             -0.0000  XYY=             -0.0000
  XXY=              0.0000  XXZ=              0.0000  XZZ=             -0.0000  YZZ=             -0.0000
  YYZ=             -0.0000  XYZ=              0.0000
 Hexadecapole moment (field-independent basis, Debye-Ang**3):
 XXXX=             -6.2775 YYYY=             -7.9228 ZZZZ=            -26.9533 XXXY=              0.0000
 XXXZ=              0.0000 YYYX=              0.0000 YYYZ=              0.0000 ZZZX=              0.0000
 ZZZY=              0.0000 XXYY=             -2.3667 XXZZ=             -5.2550 YYZZ=             -6.7076
 XXYZ=              0.0000 YYXZ=              0.0000 ZZXY=             -0.0000
 N-N= 2.926286540346D+01 E-N=-4.133505137957D+02  KE= 1.495678473772D+02
 Symmetry AG   KE= 6.968446820316D+01
 Symmetry B1G  KE= 3.474680205776D-34
 Symmetry B2G  KE= 9.998585884442D-32
 Symmetry B3G  KE= 5.960124712503D+00
 Symmetry AU   KE= 8.520554129128D-34
 Symmetry B1U  KE= 6.504368295670D+01
 Symmetry B2U  KE= 4.693702587958D+00
 Symmetry B3U  KE= 4.185868916899D+00
 There are a total of       45020 grid points.
 ElSum from          density=       16.0000000667
 ElSum from atomic densities=       16.0000000534

 Hirshfeld populations at iteration   1 (CX, CA, CB, DipXYZ):
               1          2          3          4          5          6
     1  O    0.000001   4.000000   4.000000   0.000000  -0.000000  -0.096530
     2  O    0.000001   4.000000   4.000000   0.000000  -0.000000   0.096530
       Tot   0.000001   8.000000   8.000000   0.000000  -0.000000   0.000000

 Dip from Atomic Chgs             -0.000000   0.000000   0.000000
         Total Dipole              0.000000  -0.000000   0.000000

 Hirshfeld charges, spin densities, dipoles, and CM5 charges using IRadAn=      5:
              Q-H        S-H        Dx         Dy         Dz        Q-CM5   
     1  O   -0.000000   0.000000   0.000000  -0.000000  -0.096530  -0.000000
     2  O   -0.000000   0.000000   0.000000  -0.000000   0.096530  -0.000000
       Tot  -0.000000   0.000000   0.000000  -0.000000   0.000000  -0.000000
 Hirshfeld charges with hydrogens summed into heavy atoms:
              Q-H       Q-CM5   
     1  O   -0.000000  -0.000000
     2  O   -0.000000  -0.000000
 
 EQQ= 0.000000000000E+00 EQD= 0.000000000000E+00 EDD=-0.890698945045E-03
 EQQ+QD+DD=-0.890698945045E-03
 
 Orbital energies and kinetic energies (alpha):
                                 1                 2
   1 (SGG)--O                -20.736708         29.202063
   2 (SGU)--O                -20.735533         29.214965
   3 (SGG)--O                 -1.709578          2.957609
   4 (SGU)--O                 -1.089678          3.306876
   5 (PIU)--O                 -0.792004          2.346851
   6 (SGG)--O                 -0.759211          2.682562
   7 (PIU)--O                 -0.681133          2.092934
   8 O                        -0.451853          2.980062
   9 V                         0.037823          2.308208
  10 (SGU)--V                  0.174584          0.356761
  11 (SGG)--V                  0.181155          0.464397
  12 (PIU)--V                  0.215667          0.416302
  13 (PIU)--V                  0.221072          0.389209
  14 (SGG)--V                  0.284936          0.385214
  15 V                         0.289360          0.458562
  16 V                         0.301527          0.780922
  17 (SGU)--V                  0.428290          0.572889
  18 (SGU)--V                  0.580490          3.468538
  19 (SGG)--V                  1.129488          1.986555
  20 (SGU)--V                  1.140902          3.106796
  21 (PIU)--V                  1.165246          2.487177
  22 (PIU)--V                  1.165472          2.547251
  23 V                         1.243509          2.504870
  24 V                         1.259037          2.755511
  25 V                         1.387172          3.778989
  26 V                         1.457760          2.087426
  27 V                         1.463599          2.212345
  28 (PIU)--V                  1.592931          2.599763
  29 (PIU)--V                  1.595746          2.534379
  30 V                         1.752082          4.350582
  31 V                         1.925551          2.537555
  32 V                         1.926555          2.549591
  33 (PIG)--V                  2.569147          3.222942
  34 (PIG)--V                  2.591027          3.222476
  35 (SGG)--V                  2.609868          4.104751
  36 (SGU)--V                  2.816158          4.412314
  37 (PIU)--V                  5.251716         11.881277
  38 (PIU)--V                  5.263883         11.782101
  39 (SGG)--V                  5.380739         12.284444
  40 (PIG)--V                  5.535768         12.066747
  41 (PIG)--V                  5.554418         11.971998
  42 (SGU)--V                  6.766463         12.794151
  43 V                         7.067315         10.095352
  44 V                         7.069067         10.092851
  45 (DLTU)--V                 7.191763         10.199914
  46 (DLTU)--V                 7.191915         10.197260
  47 (PIU)--V                  7.217878         10.240727
  48 V                         7.250707         10.299497
  49 (PIU)--V                  7.255262         10.238536
  50 (PIG)--V                  7.326842         10.396430
  51 (PIG)--V                  7.358993         10.392793
  52 (SGU)--V                  7.858136         11.334670
  53 (SGG)--V                 51.354246        123.905371
  54 (SGU)--V                 51.479054        123.723993
 Total kinetic energy from orbitals= 1.495678473772D+02
  Exact polarizability:   5.569   0.000   5.677  -0.000   0.000  13.251
 Approx polarizability:   5.527  -0.000   4.758  -0.000  -0.000  12.316
 No NMR shielding tensors so no spin-rotation constants.
 Leave Link  601 at Fri Sep  6 09:58:57 2024, MaxMem=   104857600 cpu:               0.1 elap:               0.1
 (Enter /Users/asuyarger/Applications/G16/g16/l701.exe)
 ... and contract with generalized density number  0.
 Compute integral second derivatives.
 Leave Link  701 at Fri Sep  6 09:58:57 2024, MaxMem=   104857600 cpu:               0.0 elap:               0.1
 (Enter /Users/asuyarger/Applications/G16/g16/l702.exe)
 L702 exits ... SP integral derivatives will be done elsewhere.
 Leave Link  702 at Fri Sep  6 09:58:57 2024, MaxMem=   104857600 cpu:               0.0 elap:               0.0
 (Enter /Users/asuyarger/Applications/G16/g16/l703.exe)
 Integral derivatives from FoFJK, PRISM(SPDF).
 Compute integral second derivatives, UseDBF=F ICtDFT=           0.
 Calling FoFJK, ICntrl=    100127 FMM=F ISym2X=1 I1Cent= 0 IOpClX= 0 NMat=1 NMatS=1 NMatT=0.
 FoFJK:  IHMeth= 1 ICntrl=  100127 DoSepK=F KAlg= 0 I1Cent=           0 FoldK=F
 IRaf=         0 NMat=       1 IRICut=       1 DoRegI=T DoRafI=F ISym2E= 1 IDoP0=0 IntGTp=1.
 FoFCou: FMM=F IPFlag=           0 FMFlag=      100000 FMFlg1=         800
         NFxFlg=           0 DoJE=F BraDBF=F KetDBF=F FulRan=T
         wScrn=  0.000000 ICntrl=    100127 IOpCl=  0 I1Cent=           0 NGrid=           0
         NMat0=    1 NMatS0=      1 NMatT0=    0 NMatD0=    1 NMtDS0=    0 NMtDT0=    0
 Petite list used in FoFCou.
 Leave Link  703 at Fri Sep  6 09:58:57 2024, MaxMem=   104857600 cpu:               0.3 elap:               0.3
 (Enter /Users/asuyarger/Applications/G16/g16/l716.exe)
 Dipole        =-3.94430453D-31 9.38890848D-34-2.22044606D-16
 Polarizability= 5.56899282D+00 0.00000000D+00 5.67706344D+00
                -3.45373750D-16 0.00000000D+00 1.32508820D+01
 HyperPolar    =-1.65382070D-16-1.06350013D-16 6.33426765D-16
                -1.41211836D-15 5.51059820D-15 7.88228688D-31
                -1.62956028D-13-2.00484828D-15-6.99809843D-16
                 7.61004766D-15
 Full mass-weighted force constant matrix:
 Low frequencies ---   -0.2706    0.0006    0.0008    0.0018    0.2304 1969.2446
 Diagonal vibrational polarizability:
        0.0000000       0.0000000       0.0000000
 Diagonal vibrational hyperpolarizability:
        0.0000000      -0.0000000       0.0000000
 Harmonic frequencies (cm**-1), IR intensities (KM/Mole), Raman scattering
 activities (A**4/AMU), depolarization ratios for plane and unpolarized
 incident light, reduced masses (AMU), force constants (mDyne/A),
 and normal coordinates:
                      1
                     SGG
 Frequencies --   1969.2446
 Red. masses --     15.9949
 Frc consts  --     36.5453
 IR Inten    --      0.0000
 Raman Activ --     20.6593
 Depolar (P) --      0.2688
 Depolar (U) --      0.4237
  Atom  AN      X      Y      Z
     1   8    -0.00   0.00   0.71
     2   8     0.00   0.00  -0.71

 -------------------
 - Thermochemistry -
 -------------------
 Temperature   298.150 Kelvin.  Pressure   1.00000 Atm.
 Atom     1 has atomic number  8 and mass  15.99491
 Atom     2 has atomic number  8 and mass  15.99491
 Molecular mass:    31.98983 amu.
 Principal axes and moments of inertia in atomic units:
                           1         2         3
     Eigenvalues --     0.00000  38.25412  38.25412
           X           -0.00000   1.00000  -0.00000
           Y            0.00000   0.00000   1.00000
           Z            1.00000   0.00000  -0.00000
 This molecule is a prolate symmetric top.
 Rotational symmetry number  2.
 Rotational temperature (Kelvin)      2.26417
 Rotational constant (GHZ):          47.177699
 Zero-point vibrational energy      11778.7 (Joules/Mol)
                                    2.81518 (Kcal/Mol)
 Vibrational temperatures:   2833.30
          (Kelvin)
 
 Zero-point correction=                           0.004486 (Hartree/Particle)
 Thermal correction to Energy=                    0.006847
 Thermal correction to Enthalpy=                  0.007792
 Thermal correction to Gibbs Free Energy=        -0.014364
 Sum of electronic and zero-point Energies=           -149.579681
 Sum of electronic and thermal Energies=              -149.577320
 Sum of electronic and thermal Enthalpies=            -149.576375
 Sum of electronic and thermal Free Energies=         -149.598531
 
                     E (Thermal)             CV                S
                      KCal/Mol        Cal/Mol-Kelvin    Cal/Mol-Kelvin
 Total                    4.297              4.981             46.630
 Electronic               0.000              0.000              0.000
 Translational            0.889              2.981             36.321
 Rotational               0.592              1.987             10.308
 Vibrational              2.816              0.013              0.002
                       Q            Log10(Q)             Ln(Q)
 Total Bot       0.404539D+07          6.606961         15.213089
 Total V=0       0.468273D+09          8.670499         19.964563
 Vib (Bot)       0.863960D-02         -2.063506         -4.751399
 Vib (V=0)       0.100007D+01          0.000032          0.000075
 Electronic      0.100000D+01          0.000000          0.000000
 Translational   0.711167D+07          6.851972         15.777248
 Rotational      0.658408D+02          1.818495          4.187240
 ***** Axes restored to original set *****
 -------------------------------------------------------------------
 Center     Atomic                   Forces (Hartrees/Bohr)
 Number     Number              X              Y              Z
 -------------------------------------------------------------------
      1        8           0.000000023   -0.000000000   -0.000000000
      2        8          -0.000000023    0.000000000    0.000000000
 -------------------------------------------------------------------
 Cartesian Forces:  Max     0.000000023 RMS     0.000000013
 Force constants in Cartesian coordinates: 
                1             2             3             4             5 
      1  0.117366D+01
      2  0.000000D+00  0.000000D+00
      3  0.000000D+00  0.000000D+00  0.000000D+00
      4 -0.117366D+01  0.000000D+00  0.000000D+00  0.117366D+01
      5  0.000000D+00  0.000000D+00  0.000000D+00  0.000000D+00  0.000000D+00
      6  0.000000D+00  0.000000D+00  0.000000D+00  0.000000D+00  0.000000D+00
                6 
      6  0.000000D+00
 FormGI is forming the generalized inverse of G from B-inverse, IUseBI=4.
 Force constants in internal coordinates: 
                1 
      1  0.117366D+01
 Leave Link  716 at Fri Sep  6 09:58:57 2024, MaxMem=   104857600 cpu:               0.0 elap:               0.0
 (Enter /Users/asuyarger/Applications/G16/g16/l103.exe)

 GradGradGradGradGradGradGradGradGradGradGradGradGradGradGradGradGradGrad
 Berny optimization.
 Red2BG is reusing G-inverse.
 Internal  Forces:  Max     0.000000023 RMS     0.000000023
 Search for a local minimum.
 Step number   1 out of a maximum of    2
 All quantities printed in internal units (Hartrees-Bohrs-Radians)
 Second derivative matrix not updated -- analytic derivatives used.
 The second derivative matrix:
                          R1
           R1           1.17366
 ITU=  0
     Eigenvalues ---    1.17366
 Angle between quadratic step and forces=  90.00 degrees.
 Linear search not attempted -- first point.
 Iteration  1 RMS(Cart)=  0.00000001 RMS(Int)=  0.00000000
 ITry= 1 IFail=0 DXMaxC= 9.96D-09 DCOld= 1.00D+10 DXMaxT= 3.00D-01 DXLimC= 3.00D+00 Rises=F
 ClnCor:  largest displacement from symmetrization is 2.22D-16 for atom     2.
 Variable       Old X    -DE/DX   Delta X   Delta X   Delta X     New X
                                 (Linear)    (Quad)   (Total)
    R1        2.18707   0.00000   0.00000   0.00000   0.00000   2.18707
         Item               Value     Threshold  Converged?
 Maximum Force            0.000000     0.000450     YES
 RMS     Force            0.000000     0.000300     YES
 Maximum Displacement     0.000000     0.001800     YES
 RMS     Displacement     0.000000     0.001200     YES
 Predicted change in Energy=-2.327256D-16
 Optimization completed.
    -- Stationary point found.
                           ----------------------------
                           !   Optimized Parameters   !
                           ! (Angstroms and Degrees)  !
 --------------------------                            --------------------------
 ! Name  Definition              Value          Derivative Info.                !
 --------------------------------------------------------------------------------
 ! R1    R(1,2)                  1.1573         -DE/DX =    0.0                 !
 --------------------------------------------------------------------------------
 GradGradGradGradGradGradGradGradGradGradGradGradGradGradGradGradGradGrad

 Leave Link  103 at Fri Sep  6 09:58:57 2024, MaxMem=   104857600 cpu:               0.0 elap:               0.0
 (Enter /Users/asuyarger/Applications/G16/g16/l9999.exe)
 Dipole is zero, so no output in dipole orientation.

 ----------------------------------------------------------------------

 Electric dipole moment (input orientation):
 (Debye = 10**-18 statcoulomb cm , SI units = C m)
                  (au)            (Debye)         (10**-30 SI)
   Tot        0.000000D+00      0.000000D+00      0.000000D+00
   x          0.000000D+00      0.000000D+00      0.000000D+00
   y          0.000000D+00      0.000000D+00      0.000000D+00
   z          0.000000D+00      0.000000D+00      0.000000D+00

 Dipole polarizability, Alpha (input orientation).
 (esu units = cm**3 , SI units = C**2 m**2 J**-1)
 Alpha(0;0):
               (au)            (10**-24 esu)      (10**-40 SI)
   iso        0.816565D+01      0.121002D+01      0.134633D+01
   aniso      0.762843D+01      0.113042D+01      0.125776D+01
   xx         0.132509D+02      0.196358D+01      0.218478D+01
   yx         0.000000D+00      0.000000D+00      0.000000D+00
   yy         0.567706D+01      0.841254D+00      0.936021D+00
   zx         0.000000D+00      0.000000D+00      0.000000D+00
   zy         0.000000D+00      0.000000D+00      0.000000D+00
   zz         0.556899D+01      0.825240D+00      0.918203D+00

 ----------------------------------------------------------------------
 1\1\GINC-JEFFSMACSTUDIO\Freq\RHF\6-311++G(2d,3p)\O2\ROOT\06-Sep-2024\0
 \\#P Geom=AllCheck Guess=TCheck SCRF=Check GenChk RHF/6-311++G(2d,3p) 
 Freq\\O2 HF 6-311++g(2d,3p) Opt Freq - Full\\0,1\O,1.5494655087,-0.697
 86534,-0.02031144\O,0.3921167313,-0.69786534,-0.02031144\\Version=EM64
 M-G16RevA.03\HF=-149.5841669\RMSD=5.933e-10\RMSF=1.349e-08\ZeroPoint=0
 .0044863\Thermal=0.0068474\Dipole=0.,0.,0.\DipoleDeriv=0.,0.,0.,0.,0.,
 0.,0.,0.,0.,0.,0.,0.,0.,0.,0.,0.,0.,0.\Polar=13.250882,0.,5.6770634,0.
 ,0.,5.5689928\PolarDeriv=12.8794616,0.,-0.3377911,0.,0.,2.0562801,0.,3
 .4629941,0.,0.,0.,0.,0.,0.,0.,3.5124061,0.,0.,-12.8794616,0.,0.3377911
 ,0.,0.,-2.0562801,0.,-3.4629941,0.,0.,0.,0.,0.,0.,0.,-3.5124061,0.,0.\
 HyperPolar=0.,0.,0.,0.,0.,0.,0.,0.,0.,0.\Quadrupole=-0.2560921,-0.5068
 772,0.7629693,0.,0.,0.\PG=D*H [C*(O1.O1)]\NImag=0\\1.17366113,0.,-0.00
 000002,0.,0.,0.00000002,-1.17366113,0.,0.,1.17366113,0.,0.00000002,0.,
 0.,-0.00000002,0.,0.,-0.00000002,0.,0.,0.00000002\\-0.00000002,0.,0.,0
 .00000002,0.,0.\\\@


 MEMORIES ARE LIKE AN ENGLISH GRAMMER LESSON -
 PRESENT TENSE, AND PAST PERFECT.
 Job cpu time:       0 days  0 hours  0 minutes  1.9 seconds.
 Elapsed time:       0 days  0 hours  0 minutes  1.7 seconds.
 File lengths (MBytes):  RWF=      6 Int=      0 D2E=      0 Chk=      1 Scr=      1
 Normal termination of Gaussian 16 at Fri Sep  6 09:58:57 2024.
