 Entering Gaussian System, Link 0=g16
 Input=/Users/asuyarger/Downloads/O2_PM6_Opt_Freq_Full.gjf
 Output=/Users/asuyarger/Downloads/O2_PM6_Opt_Freq_Full.log
 Initial command:
 /Users/asuyarger/Applications/G16/g16/l1.exe "/Users/asuyarger/Applications/G16/scratch/Gau-88513.inp" -scrdir="/Users/asuyarger/Applications/G16/scratch/"
 Entering Link 1 = /Users/asuyarger/Applications/G16/g16/l1.exe PID=     88514.
  
 Copyright (c) 1988,1990,1992,1993,1995,1998,2003,2009,2016,
            Gaussian, Inc.  All Rights Reserved.
  
 This is part of the Gaussian(R) 16 program.  It is based on
 the Gaussian(R) 09 system (copyright 2009, Gaussian, Inc.),
 the Gaussian(R) 03 system (copyright 2003, Gaussian, Inc.),
 the Gaussian(R) 98 system (copyright 1998, Gaussian, Inc.),
 the Gaussian(R) 94 system (copyright 1995, Gaussian, Inc.),
 the Gaussian 92(TM) system (copyright 1992, Gaussian, Inc.),
 the Gaussian 90(TM) system (copyright 1990, Gaussian, Inc.),
 the Gaussian 88(TM) system (copyright 1988, Gaussian, Inc.),
 the Gaussian 86(TM) system (copyright 1986, Carnegie Mellon
 University), and the Gaussian 82(TM) system (copyright 1983,
 Carnegie Mellon University). Gaussian is a federally registered
 trademark of Gaussian, Inc.
  
 This software contains proprietary and confidential information,
 including trade secrets, belonging to Gaussian, Inc.
  
 This software is provided under written license and may be
 used, copied, transmitted, or stored only in accord with that
 written license.
  
 The following legend is applicable only to US Government
 contracts under FAR:
  
                    RESTRICTED RIGHTS LEGEND
  
 Use, reproduction and disclosure by the US Government is
 subject to restrictions as set forth in subparagraphs (a)
 and (c) of the Commercial Computer Software - Restricted
 Rights clause in FAR 52.227-19.
  
 Gaussian, Inc.
 340 Quinnipiac St., Bldg. 40, Wallingford CT 06492
  
  
 ---------------------------------------------------------------
 Warning -- This program may not be used in any manner that
 competes with the business of Gaussian, Inc. or will provide
 assistance to any competitor of Gaussian, Inc.  The licensee
 of this program is prohibited from giving any competitor of
 Gaussian, Inc. access to this program.  By using this program,
 the user acknowledges that Gaussian, Inc. is engaged in the
 business of creating and licensing software in the field of
 computational chemistry and represents and warrants to the
 licensee that it is not a competitor of Gaussian, Inc. and that
 it will not use this program in any manner prohibited above.
 ---------------------------------------------------------------
  

 Cite this work as:
 Gaussian 16, Revision A.03,
 M. J. Frisch, G. W. Trucks, H. B. Schlegel, G. E. Scuseria, 
 M. A. Robb, J. R. Cheeseman, G. Scalmani, V. Barone, 
 G. A. Petersson, H. Nakatsuji, X. Li, M. Caricato, A. V. Marenich, 
 J. Bloino, B. G. Janesko, R. Gomperts, B. Mennucci, H. P. Hratchian, 
 J. V. Ortiz, A. F. Izmaylov, J. L. Sonnenberg, D. Williams-Young, 
 F. Ding, F. Lipparini, F. Egidi, J. Goings, B. Peng, A. Petrone, 
 T. Henderson, D. Ranasinghe, V. G. Zakrzewski, J. Gao, N. Rega, 
 G. Zheng, W. Liang, M. Hada, M. Ehara, K. Toyota, R. Fukuda, 
 J. Hasegawa, M. Ishida, T. Nakajima, Y. Honda, O. Kitao, H. Nakai, 
 T. Vreven, K. Throssell, J. A. Montgomery, Jr., J. E. Peralta, 
 F. Ogliaro, M. J. Bearpark, J. J. Heyd, E. N. Brothers, K. N. Kudin, 
 V. N. Staroverov, T. A. Keith, R. Kobayashi, J. Normand, 
 K. Raghavachari, A. P. Rendell, J. C. Burant, S. S. Iyengar, 
 J. Tomasi, M. Cossi, J. M. Millam, M. Klene, C. Adamo, R. Cammi, 
 J. W. Ochterski, R. L. Martin, K. Morokuma, O. Farkas, 
 J. B. Foresman, and D. J. Fox, Gaussian, Inc., Wallingford CT, 2016.
 
 ******************************************
 Gaussian 16:  EM64M-G16RevA.03 25-Dec-2016
                 6-Sep-2024 
 ******************************************
 %chk=O2_PM6_Opt_Freq_Full.chk
 ----------------------------------------------------------------------
 #p opt freq=raman pm6 guess=save pop=(hirshfeld,full) geom=connectivit
 y polar
 ----------------------------------------------------------------------
 1/18=20,19=15,26=1,38=1,57=2/1,3;
 2/9=110,12=2,17=6,18=5,40=1/2;
 3/5=2,25=1,41=3900000,71=1/1,2,3;
 4/35=1/1;
 5/5=2,35=1,38=5,98=1/2;
 6/7=3,28=1,79=1/1;
 7//1,2,3,16;
 1/18=20,19=15,26=1/3(2);
 2/9=110/2;
 99//99;
 2/9=110/2;
 3/5=2,25=1,41=3900000,71=1,135=20/1,2,3;
 4/5=5,16=3,35=1/1;
 5/5=2,35=1,38=5,98=1/2;
 7//1,2,3,16;
 1/18=20,19=15,26=1/3(-5);
 2/9=110/2;
 6/7=3,19=2,28=1,79=1/1;
 99/9=1/99;
 Leave Link    1 at Fri Sep  6 09:57:47 2024, MaxMem=           0 cpu:               0.0 elap:               0.0
 (Enter /Users/asuyarger/Applications/G16/g16/l101.exe)
 ---------------
 O2 PM6 Opt Freq
 ---------------
 Symbolic Z-matrix:
 Charge =  0 Multiplicity = 1
 O                     1.55159  -0.69787  -0.02031 
 O                     0.38999  -0.69787  -0.02031 
 
 ITRead=  0  0
 MicOpt= -1 -1
 NAtoms=      2 NQM=        2 NQMF=       0 NMMI=      0 NMMIF=      0
                NMic=       0 NMicF=      0.
                    Isotopes and Nuclear Properties:
 (Nuclear quadrupole moments (NQMom) in fm**2, nuclear magnetic moments (NMagM)
  in nuclear magnetons)

  Atom         1           2
 IAtWgt=          16          16
 AtmWgt=  15.9949146  15.9949146
 NucSpn=           0           0
 AtZEff=  -0.0000000  -0.0000000
 NQMom=    0.0000000   0.0000000
 NMagM=    0.0000000   0.0000000
 AtZNuc=   8.0000000   8.0000000
 Leave Link  101 at Fri Sep  6 09:57:47 2024, MaxMem=   104857600 cpu:               0.1 elap:               0.1
 (Enter /Users/asuyarger/Applications/G16/g16/l103.exe)

 GradGradGradGradGradGradGradGradGradGradGradGradGradGradGradGradGradGrad
 Berny optimization.
 Initialization pass.
                           ----------------------------
                           !    Initial Parameters    !
                           ! (Angstroms and Degrees)  !
 --------------------------                            --------------------------
 ! Name  Definition              Value          Derivative Info.                !
 --------------------------------------------------------------------------------
 ! R1    R(1,2)                  1.1616         estimate D2E/DX2                !
 --------------------------------------------------------------------------------
 Trust Radius=3.00D-01 FncErr=1.00D-07 GrdErr=1.00D-07 EigMax=2.50D+02 EigMin=1.00D-04
 Number of steps in this run=     20 maximum allowed number of steps=    100.
 GradGradGradGradGradGradGradGradGradGradGradGradGradGradGradGradGradGrad

 Leave Link  103 at Fri Sep  6 09:57:47 2024, MaxMem=   104857600 cpu:               0.0 elap:               0.0
 (Enter /Users/asuyarger/Applications/G16/g16/l202.exe)
                          Input orientation:                          
 ---------------------------------------------------------------------
 Center     Atomic      Atomic             Coordinates (Angstroms)
 Number     Number       Type             X           Y           Z
 ---------------------------------------------------------------------
      1          8           0        1.551591   -0.697865   -0.020311
      2          8           0        0.389991   -0.697865   -0.020311
 ---------------------------------------------------------------------
 Stoichiometry    O2
 Framework group  D*H[C*(O.O)]
 Deg. of freedom     1
 Full point group                 D*H     NOp   8
 Largest Abelian subgroup         D2H     NOp   8
 Largest concise Abelian subgroup C2      NOp   2
                         Standard orientation:                         
 ---------------------------------------------------------------------
 Center     Atomic      Atomic             Coordinates (Angstroms)
 Number     Number       Type             X           Y           Z
 ---------------------------------------------------------------------
      1          8           0        0.000000    0.000000    0.580800
      2          8           0        0.000000    0.000000   -0.580800
 ---------------------------------------------------------------------
 Rotational constants (GHZ):           0.0000000          46.8330090          46.8330090
 Leave Link  202 at Fri Sep  6 09:57:47 2024, MaxMem=   104857600 cpu:               0.0 elap:               0.0
 (Enter /Users/asuyarger/Applications/G16/g16/l301.exe)
 Standard basis: VSTO-6G (5D, 7F)
 Ernie: Thresh=  0.10000D-02 Tol=  0.10000D-05 Strict=F.
  NNHCO=     0 NNPyr=     0 NCTC=     0               EPep=         0.000000000
    EC=        11.050419572  ECS=         0.560103571   EG=        -0.007762981
   EHC=         0.001020772  EAt=       -21.103462221  AtH=         0.189826616
 EPDDG=         0.000000000  ECC=        11.603780934 EAtT=        21.293288837
 There are     2 symmetry adapted cartesian basis functions of AG  symmetry.
 There are     0 symmetry adapted cartesian basis functions of B1G symmetry.
 There are     1 symmetry adapted cartesian basis functions of B2G symmetry.
 There are     1 symmetry adapted cartesian basis functions of B3G symmetry.
 There are     0 symmetry adapted cartesian basis functions of AU  symmetry.
 There are     2 symmetry adapted cartesian basis functions of B1U symmetry.
 There are     1 symmetry adapted cartesian basis functions of B2U symmetry.
 There are     1 symmetry adapted cartesian basis functions of B3U symmetry.
 There are     2 symmetry adapted basis functions of AG  symmetry.
 There are     0 symmetry adapted basis functions of B1G symmetry.
 There are     1 symmetry adapted basis functions of B2G symmetry.
 There are     1 symmetry adapted basis functions of B3G symmetry.
 There are     0 symmetry adapted basis functions of AU  symmetry.
 There are     2 symmetry adapted basis functions of B1U symmetry.
 There are     1 symmetry adapted basis functions of B2U symmetry.
 There are     1 symmetry adapted basis functions of B3U symmetry.
     8 basis functions,    48 primitive gaussians,     8 cartesian basis functions
     6 alpha electrons        6 beta electrons
       nuclear repulsion energy        32.8970697709 Hartrees.
 IExCor=    0 DFT=F Ex=HF Corr=None ExCW=0 ScaHFX=  1.000000
 ScaDFX=  1.000000  1.000000  1.000000  1.000000 ScalE2=  1.000000  1.000000
 IRadAn=      5 IRanWt=     -1 IRanGd=            0 ICorTp=0 IEmpDi=  4
 Integral buffers will be    131072 words long.
 Regular integral format.
 Two-electron integral symmetry is turned off.
 Leave Link  301 at Fri Sep  6 09:57:47 2024, MaxMem=   104857600 cpu:               0.0 elap:               0.0
 (Enter /Users/asuyarger/Applications/G16/g16/l302.exe)
 Do NDO integrals.
 NPDir=0 NMtPBC=     1 NCelOv=     1 NCel=       1 NClECP=     1 NCelD=      1
         NCelK=      1 NCelE2=     1 NClLst=     1 CellRange=     0.0.
 One-electron integrals computed using PRISM.
 NBasis=     8 RedAO= T EigKep=  1.00D+00  NBF=     2     0     1     1     0     2     1     1
 NBsUse=     8 1.00D-06 EigRej= -1.00D+00 NBFU=     2     0     1     1     0     2     1     1
 Leave Link  302 at Fri Sep  6 09:57:47 2024, MaxMem=   104857600 cpu:               0.0 elap:               0.0
 (Enter /Users/asuyarger/Applications/G16/g16/l303.exe)
 DipDrv:  MaxL=1.
 Leave Link  303 at Fri Sep  6 09:57:47 2024, MaxMem=   104857600 cpu:               0.0 elap:               0.0
 (Enter /Users/asuyarger/Applications/G16/g16/l401.exe)
 Simple Huckel Guess.
 JPrj=0 DoOrth=F DoCkMO=F.
 Initial guess orbital symmetries:
       Occupied  (SGG) (SGU) (PIU) (PIU) (SGG) (PIG)
       Virtual   (PIG) (SGU)
 Leave Link  401 at Fri Sep  6 09:57:48 2024, MaxMem=   104857600 cpu:               0.0 elap:               0.0
 (Enter /Users/asuyarger/Applications/G16/g16/l502.exe)
 Keep J ints in memory in canonical form, NReq=859239.
 FoFCou: FMM=F IPFlag=           0 FMFlag=           0 FMFlg1=           0
         NFxFlg=           0 DoJE=F BraDBF=F KetDBF=F FulRan=T
         wScrn=  0.000000 ICntrl=       600 IOpCl=  2 I1Cent=           0 NGrid=           0
         NMat0=    1 NMatS0=     20 NMatT0=    0 NMatD0=    1 NMtDS0=    0 NMtDT0=    0
 Symmetry not used in FoFCou.
 Two-electron integral symmetry not used.
 Closed shell SCF:
 Using DIIS extrapolation, IDIIS=  1040.
 Overlap will be assumed to be unity.
 NGot=   104857600 LenX=   104797164 LenY=   104796282
 Requested convergence on RMS density matrix=1.00D-08 within 128 cycles.
 Requested convergence on MAX density matrix=1.00D-06.
 Requested convergence on             energy=1.00D-06.
 No special actions if energy rises.

 Cycle   1  Pass 1  IDiag  1:
 E= 0.317957180522008    
 DIIS: error= 6.85D-02 at cycle   1 NSaved=   1.
 NSaved= 1 IEnMin= 1 EnMin= 0.317957180522008     IErMin= 1 ErrMin= 6.85D-02
 ErrMax= 6.85D-02  0.00D+00 EMaxC= 1.00D-01 BMatC= 7.51D-02 BMatP= 7.51D-02
 IDIUse=3 WtCom= 3.15D-01 WtEn= 6.85D-01
 Coeff-Com:  0.100D+01
 Coeff-En:   0.100D+01
 Coeff:      0.100D+01
 GapD=    2.000 DampG=2.000 DampE=0.500 DampFc=1.0000 IDamp=-1.
 RMSDP=5.22D-02 MaxDP=1.25D-01              OVMax= 0.00D+00

 Cycle   2  Pass 1  IDiag  1:
 E= 0.880492567883095E-01 Delta-E=       -0.229907923734 Rises=F Damp=F
 DIIS: error= 2.20D-02 at cycle   2 NSaved=   2.
 NSaved= 2 IEnMin= 2 EnMin= 0.880492567883095E-01 IErMin= 2 ErrMin= 2.20D-02
 ErrMax= 2.20D-02  0.00D+00 EMaxC= 1.00D-01 BMatC= 7.77D-03 BMatP= 7.51D-02
 IDIUse=3 WtCom= 7.80D-01 WtEn= 2.20D-01
 Coeff-Com: -0.474D+00 0.147D+01
 Coeff-En:   0.000D+00 0.100D+01
 Coeff:     -0.370D+00 0.137D+01
 RMSDP=1.84D-02 MaxDP=4.29D-02 DE=-2.30D-01 OVMax= 0.00D+00

 Cycle   3  Pass 1  IDiag  1:
 E= 0.699340831200885E-01 Delta-E=       -0.018115173668 Rises=F Damp=F
 DIIS: error= 7.18D-04 at cycle   3 NSaved=   3.
 NSaved= 3 IEnMin= 3 EnMin= 0.699340831200885E-01 IErMin= 3 ErrMin= 7.18D-04
 ErrMax= 7.18D-04  0.00D+00 EMaxC= 1.00D-01 BMatC= 8.26D-06 BMatP= 7.77D-03
 IDIUse=3 WtCom= 9.93D-01 WtEn= 7.18D-03
 Large coefficients: NSaved=  3 BigCof=    0.00 CofMax=   10.00 Det= 1.73D-18
 Inversion failed.  Reducing to  2 matrices.
 Coeff-Com:  0.316D-01 0.968D+00
 Coeff-En:   0.000D+00 0.100D+01
 Coeff:      0.313D-01 0.969D+00
 RMSDP=5.64D-04 MaxDP=1.40D-03 DE=-1.81D-02 OVMax= 0.00D+00

 Cycle   4  Pass 1  IDiag  3:
 E= 0.699160578530282E-01 Delta-E=       -0.000018025267 Rises=F Damp=F
 DIIS: error= 1.20D-05 at cycle   4 NSaved=   3.
 NSaved= 3 IEnMin= 3 EnMin= 0.699160578530282E-01 IErMin= 3 ErrMin= 1.20D-05
 ErrMax= 1.20D-05  0.00D+00 EMaxC= 1.00D-01 BMatC= 2.32D-09 BMatP= 8.26D-06
 IDIUse=1 WtCom= 1.00D+00 WtEn= 0.00D+00
 Large coefficients: NSaved=  3 BigCof=    0.00 CofMax=   10.00 Det=-1.69D-21
 Inversion failed.  Reducing to  2 matrices.
 Coeff-Com:  0.165D-01 0.984D+00
 Coeff:      0.165D-01 0.984D+00
 Fock symm off for IB=4 I1=    1 I=    4 J=    1 Cut=1.00D-07 Err=2.73D-05
 Fock matrix is not symmetric: symmetry in diagonalization turned off.
 Gap=     0.239 Goal=   None    Shift=    0.000
 RMSDP=9.31D-06 MaxDP=2.31D-05 DE=-1.80D-05 OVMax= 5.27D-05

 Cycle   5  Pass 1  IDiag  3:
 E= 0.699160527723919E-01 Delta-E=       -0.000000005081 Rises=F Damp=F
 DIIS: error= 6.40D-09 at cycle   5 NSaved=   3.
 NSaved= 3 IEnMin= 3 EnMin= 0.699160527723919E-01 IErMin= 3 ErrMin= 6.40D-09
 ErrMax= 6.40D-09  0.00D+00 EMaxC= 1.00D-01 BMatC= 6.55D-16 BMatP= 2.32D-09
 IDIUse=1 WtCom= 1.00D+00 WtEn= 0.00D+00
 Large coefficients: NSaved=  3 BigCof=    0.00 CofMax=   10.00 Det= 0.00D+00
 Inversion failed.  Reducing to  2 matrices.
 Coeff-Com: -0.531D-03 0.100D+01
 Coeff:     -0.531D-03 0.100D+01
 Gap=     0.239 Goal=   None    Shift=    0.000
 RMSDP=4.95D-09 MaxDP=1.23D-08 DE=-5.08D-09 OVMax= 2.80D-08

 Cycle   6  Pass 2  IDiag  1:
 SCF Done:  E(RPM6) =  0.699160527724E-01 A.U. after    6 cycles
            NFock=  5  Conv=0.49D-08     -V/T= 1.0020
 KE=-3.504551279863D+01 PE=-2.163475604343D+01 EE= 2.385311512395D+01
 Leave Link  502 at Fri Sep  6 09:57:48 2024, MaxMem=   104857600 cpu:               0.0 elap:               0.0
 (Enter /Users/asuyarger/Applications/G16/g16/l601.exe)
 Copying SCF densities to generalized density rwf, IOpCl= 0 IROHF=0.

 **********************************************************************

            Population analysis using the SCF density.

 **********************************************************************

 Orbital symmetries:
       Occupied  (SGG) (SGU) (PIU) (SGG) (PIU) (PIG)
       Virtual   (PIG) (SGU)
 Unable to determine electronic state:  partially filled degenerate orbitals.
 Alpha  occ. eigenvalues --   -1.24675  -1.05618  -0.63964  -0.63492  -0.59316
 Alpha  occ. eigenvalues --   -0.31637
 Alpha virt. eigenvalues --   -0.07729   0.08259
     Molecular Orbital Coefficients:
                           1         2         3         4         5
                       (SGG)--O  (SGU)--O  (PIU)--O  (SGG)--O  (PIU)--O
     Eigenvalues --    -1.24675  -1.05618  -0.63964  -0.63492  -0.59316
   1 1   O  1S          0.58513   0.68489  -0.00000   0.39701  -0.00000
   2        1PX         0.00000  -0.00000   0.00000   0.00000   0.70711
   3        1PY         0.00000  -0.00000   0.70711   0.00000  -0.00000
   4        1PZ        -0.39701   0.17588  -0.00000   0.58513  -0.00000
   5 2   O  1S          0.58513  -0.68489  -0.00000   0.39701  -0.00000
   6        1PX         0.00000  -0.00000   0.00000   0.00000   0.70711
   7        1PY         0.00000  -0.00000   0.70711   0.00000  -0.00000
   8        1PZ         0.39701   0.17588   0.00000  -0.58513   0.00000
                           6         7         8
                       (PIG)--O  (PIG)--V  (SGU)--V
     Eigenvalues --    -0.31637  -0.07729   0.08259
   1 1   O  1S          0.00000  -0.00000  -0.17588
   2        1PX         0.70711   0.00000   0.00000
   3        1PY        -0.00000   0.70711   0.00000
   4        1PZ         0.00000  -0.00000   0.68489
   5 2   O  1S          0.00000   0.00000   0.17588
   6        1PX        -0.70711  -0.00000  -0.00000
   7        1PY         0.00000  -0.70711   0.00000
   8        1PZ        -0.00000   0.00000   0.68489
     Density Matrix:
                           1         2         3         4         5
   1 1   O  1S          1.93813
   2        1PX         0.00000   2.00000
   3        1PY         0.00000  -0.00000   1.00000
   4        1PZ         0.24091  -0.00000   0.00000   1.06187
   5 2   O  1S          0.06187   0.00000  -0.00000  -0.24091   1.93813
   6        1PX         0.00000   0.00000   0.00000   0.00000   0.00000
   7        1PY        -0.00000   0.00000   1.00000  -0.00000   0.00000
   8        1PZ         0.24091  -0.00000  -0.00000  -0.93813  -0.24091
                           6         7         8
   6        1PX         2.00000
   7        1PY        -0.00000   1.00000
   8        1PZ         0.00000  -0.00000   1.06187
    Full Mulliken population analysis:
                           1         2         3         4         5
   1 1   O  1S          1.93813
   2        1PX         0.00000   2.00000
   3        1PY         0.00000   0.00000   1.00000
   4        1PZ         0.00000   0.00000   0.00000   1.06187
   5 2   O  1S          0.00000   0.00000   0.00000   0.00000   1.93813
   6        1PX         0.00000   0.00000   0.00000   0.00000   0.00000
   7        1PY         0.00000   0.00000   0.00000   0.00000   0.00000
   8        1PZ         0.00000   0.00000   0.00000   0.00000   0.00000
                           6         7         8
   6        1PX         2.00000
   7        1PY         0.00000   1.00000
   8        1PZ         0.00000   0.00000   1.06187
     Gross orbital populations:
                           1
   1 1   O  1S          1.93813
   2        1PX         2.00000
   3        1PY         1.00000
   4        1PZ         1.06187
   5 2   O  1S          1.93813
   6        1PX         2.00000
   7        1PY         1.00000
   8        1PZ         1.06187
          Condensed to atoms (all electrons):
               1          2
     1  O    6.000000   0.000000
     2  O    0.000000   6.000000
 Mulliken charges:
               1
     1  O    0.000000
     2  O    0.000000
 Sum of Mulliken charges =   0.00000
 Mulliken charges with hydrogens summed into heavy atoms:
               1
     1  O    0.000000
     2  O    0.000000
 Charge=              0.0000 electrons
 Dipole moment (field-independent basis, Debye):
    X=             -0.0000    Y=             -0.0000    Z=             -0.0000  Tot=              0.0000
 N-N= 3.289706977088D+01 E-N=-2.163475606416D+01  KE=-3.504551279863D+01
 Symmetry AG   KE=-1.244784687697D+01
 Symmetry B1G  KE= 0.000000000000D+00
 Symmetry B2G  KE=-4.915908086282D+00
 Symmetry B3G  KE= 0.000000000000D+00
 Symmetry AU   KE= 0.000000000000D+00
 Symmetry B1U  KE=-6.798436159199D+00
 Symmetry B2U  KE=-5.441660838089D+00
 Symmetry B3U  KE=-5.441660838089D+00
 StAtR1:  DoIntr=F IAtCor=3 NETot=      12 Failed=F Sum=  4.00D+00 SumC=  0.00D+00
 There are a total of       43208 grid points.
 ElSum from          density=       12.1517569390
 ElSum from atomic densities=       15.9999951091
 Hirshfeld populations at iteration   1 (CA, CB, DipXYZ):
               1          2          3          4          5
     1  O    3.037939   3.037939  -0.000000   0.000000   0.074577
     2  O    3.037939   3.037939  -0.000000   0.000000  -0.074577
       Tot   6.075878   6.075878  -0.000000   0.000000   0.000000

 Dip from Atomic Chgs             -0.000000   0.000000   0.000000
         Total Dipole             -0.000000   0.000000   0.000000

 Hirshfeld charges, spin densities, dipoles, and CM5 charges using IRadAn=      5:
              Q-H        S-H        Dx         Dy         Dz        Q-CM5   
     1  O   -0.075878   0.000000  -0.000000   0.000000   0.074577  -0.075878
     2  O   -0.075878   0.000000  -0.000000   0.000000  -0.074577  -0.075878
       Tot  -0.151757   0.000000  -0.000000   0.000000   0.000000  -0.151757
 Hirshfeld charges with hydrogens summed into heavy atoms:
              Q-H       Q-CM5   
     1  O   -0.075878  -0.075878
     2  O   -0.075878  -0.075878
 
 EQQ= 0.000000000000E+00 EQD= 0.000000000000E+00 EDD=-0.525822484843E-03
 EQQ+QD+DD=-0.525822484843E-03
 
 Orbital energies and kinetic energies (alpha):
                                 1                 2
   1         (SGG)--O         -1.246748         -3.413230
   2         (SGU)--O         -1.056179         -3.399218
   3         (PIU)--O         -0.639641         -2.720830
   4         (SGG)--O         -0.634920         -2.810694
   5         (PIU)--O         -0.593163         -2.720830
   6         (PIG)--O         -0.316369         -2.457954
   7         (PIG)--V         -0.077292         -2.457954
   8         (SGU)--V          0.082586         -2.293908
 Total kinetic energy from orbitals=-3.504551279863D+01
 Leave Link  601 at Fri Sep  6 09:57:48 2024, MaxMem=   104857600 cpu:               0.0 elap:               0.0
 (Enter /Users/asuyarger/Applications/G16/g16/l701.exe)
 ... and contract with generalized density number  0.
 Compute integral first derivatives.
 Leave Link  701 at Fri Sep  6 09:57:48 2024, MaxMem=   104857600 cpu:               0.0 elap:               0.0
 (Enter /Users/asuyarger/Applications/G16/g16/l702.exe)
 L702 exits ... SP integral derivatives will be done elsewhere.
 Leave Link  702 at Fri Sep  6 09:57:48 2024, MaxMem=   104857600 cpu:               0.0 elap:               0.0
 (Enter /Users/asuyarger/Applications/G16/g16/l703.exe)
 Integral derivatives from FoFJK, PRISM(SPDF).
 Compute integral first derivatives, UseDBF=F ICtDFT=           0.
 Calling FoFJK, ICntrl=      2127 FMM=F ISym2X=1 I1Cent= 0 IOpClX= 0 NMat=1 NMatS=1 NMatT=0.
 FoFJK:  IHMeth=40 ICntrl=    2127 DoSepK=F KAlg= 0 I1Cent=           0 FoldK=F
 IRaf=         0 NMat=       1 IRICut=       1 DoRegI=T DoRafI=F ISym2E= 1 IDoP0=3 IntGTp=3.
 FoFCou: FMM=F IPFlag=           0 FMFlag=      100000 FMFlg1=         800
         NFxFlg=           0 DoJE=F BraDBF=F KetDBF=F FulRan=T
         wScrn=  0.000000 ICntrl=      2127 IOpCl=  0 I1Cent=           0 NGrid=           0
         NMat0=    1 NMatS0=      1 NMatT0=    0 NMatD0=    1 NMtDS0=    0 NMtDT0=    0
 Petite list used in FoFCou.
 Leave Link  703 at Fri Sep  6 09:57:48 2024, MaxMem=   104857600 cpu:               0.0 elap:               0.0
 (Enter /Users/asuyarger/Applications/G16/g16/l716.exe)
 Dipole        =-3.03052527D-16-8.30967309D-17-1.77635684D-15
 ***** Axes restored to original set *****
 -------------------------------------------------------------------
 Center     Atomic                   Forces (Hartrees/Bohr)
 Number     Number              X              Y              Z
 -------------------------------------------------------------------
      1        8          -0.066147256    0.000000000   -0.000000000
      2        8           0.066147256   -0.000000000    0.000000000
 -------------------------------------------------------------------
 Cartesian Forces:  Max     0.066147256 RMS     0.038190136
 Leave Link  716 at Fri Sep  6 09:57:48 2024, MaxMem=   104857600 cpu:               0.0 elap:               0.0
 (Enter /Users/asuyarger/Applications/G16/g16/l103.exe)

 GradGradGradGradGradGradGradGradGradGradGradGradGradGradGradGradGradGrad
 Berny optimization.
 FormGI is forming the generalized inverse of G from B-inverse, IUseBI=4.
 Internal  Forces:  Max     0.066147256 RMS     0.066147256
 Search for a local minimum.
 Step number   1 out of a maximum of   20
 All quantities printed in internal units (Hartrees-Bohrs-Radians)
 RMS Force = .66147D-01 SwitMx=.10000D-02 MixMth= 1
 Mixed Optimization -- RFO/linear search
 Second derivative matrix not updated -- first step.
 The second derivative matrix:
                          R1
           R1           1.26752
 ITU=  0
     Eigenvalues ---    1.26752
 RFO step:  Lambda=-3.44262568D-03 EMin= 1.26752315D+00
 Linear search not attempted -- first point.
 Iteration  1 RMS(Cart)=  0.03680128 RMS(Int)=  0.00000000
 Iteration  2 RMS(Cart)=  0.00000000 RMS(Int)=  0.00000000
 ITry= 1 IFail=0 DXMaxC= 2.60D-02 DCOld= 1.00D+10 DXMaxT= 3.00D-01 DXLimC= 3.00D+00 Rises=F
 ClnCor:  largest displacement from symmetrization is 4.44D-16 for atom     2.
 Variable       Old X    -DE/DX   Delta X   Delta X   Delta X     New X
                                 (Linear)    (Quad)   (Total)
    R1        2.19511  -0.06615   0.00000  -0.05204  -0.05204   2.14306
         Item               Value     Threshold  Converged?
 Maximum Force            0.066147     0.000450     NO 
 RMS     Force            0.066147     0.000300     NO 
 Maximum Displacement     0.026022     0.001800     NO 
 RMS     Displacement     0.036801     0.001200     NO 
 Predicted change in Energy=-1.725975D-03
 Lowest energy point so far.  Saving SCF results.
 GradGradGradGradGradGradGradGradGradGradGradGradGradGradGradGradGradGrad

 Leave Link  103 at Fri Sep  6 09:57:48 2024, MaxMem=   104857600 cpu:               0.0 elap:               0.0
 (Enter /Users/asuyarger/Applications/G16/g16/l202.exe)
                          Input orientation:                          
 ---------------------------------------------------------------------
 Center     Atomic      Atomic             Coordinates (Angstroms)
 Number     Number       Type             X           Y           Z
 ---------------------------------------------------------------------
      1          8           0        1.537821   -0.697865   -0.020311
      2          8           0        0.403762   -0.697865   -0.020311
 ---------------------------------------------------------------------
 Stoichiometry    O2
 Framework group  D*H[C*(O.O)]
 Deg. of freedom     1
 Full point group                 D*H     NOp   8
 RotChk:  IX=0 Diff= 8.70D-17
 Largest Abelian subgroup         D2H     NOp   8
 Largest concise Abelian subgroup C2      NOp   2
                         Standard orientation:                         
 ---------------------------------------------------------------------
 Center     Atomic      Atomic             Coordinates (Angstroms)
 Number     Number       Type             X           Y           Z
 ---------------------------------------------------------------------
      1          8           0        0.000000    0.000000    0.567030
      2          8           0        0.000000    0.000000   -0.567030
 ---------------------------------------------------------------------
 Rotational constants (GHZ):           0.0000000          49.1353372          49.1353372
 Leave Link  202 at Fri Sep  6 09:57:48 2024, MaxMem=   104857600 cpu:               0.0 elap:               0.0
 (Enter /Users/asuyarger/Applications/G16/g16/l301.exe)
 Standard basis: VSTO-6G (5D, 7F)
 Ernie: Thresh=  0.10000D-02 Tol=  0.10000D-05 Strict=F.
  NNHCO=     0 NNPyr=     0 NCTC=     0               EPep=         0.000000000
    EC=        11.169868763  ECS=         0.608745277   EG=        -0.007009408
   EHC=         0.001361382  EAt=       -21.103462221  AtH=         0.189826616
 EPDDG=         0.000000000  ECC=        11.772966014 EAtT=        21.293288837
 There are     2 symmetry adapted cartesian basis functions of AG  symmetry.
 There are     0 symmetry adapted cartesian basis functions of B1G symmetry.
 There are     1 symmetry adapted cartesian basis functions of B2G symmetry.
 There are     1 symmetry adapted cartesian basis functions of B3G symmetry.
 There are     0 symmetry adapted cartesian basis functions of AU  symmetry.
 There are     2 symmetry adapted cartesian basis functions of B1U symmetry.
 There are     1 symmetry adapted cartesian basis functions of B2U symmetry.
 There are     1 symmetry adapted cartesian basis functions of B3U symmetry.
 There are     2 symmetry adapted basis functions of AG  symmetry.
 There are     0 symmetry adapted basis functions of B1G symmetry.
 There are     1 symmetry adapted basis functions of B2G symmetry.
 There are     1 symmetry adapted basis functions of B3G symmetry.
 There are     0 symmetry adapted basis functions of AU  symmetry.
 There are     2 symmetry adapted basis functions of B1U symmetry.
 There are     1 symmetry adapted basis functions of B2U symmetry.
 There are     1 symmetry adapted basis functions of B3U symmetry.
     8 basis functions,    48 primitive gaussians,     8 cartesian basis functions
     6 alpha electrons        6 beta electrons
       nuclear repulsion energy        33.0662548504 Hartrees.
 IExCor=    0 DFT=F Ex=HF Corr=None ExCW=0 ScaHFX=  1.000000
 ScaDFX=  1.000000  1.000000  1.000000  1.000000 ScalE2=  1.000000  1.000000
 IRadAn=      5 IRanWt=     -1 IRanGd=            0 ICorTp=0 IEmpDi=  4
 Integral buffers will be    131072 words long.
 Regular integral format.
 Two-electron integral symmetry is turned off.
 Leave Link  301 at Fri Sep  6 09:57:48 2024, MaxMem=   104857600 cpu:               0.0 elap:               0.0
 (Enter /Users/asuyarger/Applications/G16/g16/l302.exe)
 Do NDO integrals.
 NPDir=0 NMtPBC=     1 NCelOv=     1 NCel=       1 NClECP=     1 NCelD=      1
         NCelK=      1 NCelE2=     1 NClLst=     1 CellRange=     0.0.
 One-electron integrals computed using PRISM.
 NBasis=     8 RedAO= T EigKep=  1.00D+00  NBF=     2     0     1     1     0     2     1     1
 NBsUse=     8 1.00D-06 EigRej= -1.00D+00 NBFU=     2     0     1     1     0     2     1     1
 Leave Link  302 at Fri Sep  6 09:57:48 2024, MaxMem=   104857600 cpu:               0.0 elap:               0.0
 (Enter /Users/asuyarger/Applications/G16/g16/l303.exe)
 DipDrv:  MaxL=1.
 Leave Link  303 at Fri Sep  6 09:57:48 2024, MaxMem=   104857600 cpu:               0.0 elap:               0.0
 (Enter /Users/asuyarger/Applications/G16/g16/l401.exe)
 Initial guess from the checkpoint file:  "O2_PM6_Opt_Freq_Full.chk"
 B after Tr=    -0.000000    0.000000    0.000000
         Rot=    1.000000    0.000000    0.000000    0.000000 Ang=   0.00 deg.
 Guess basis will be translated and rotated to current coordinates.
 JPrj=0 DoOrth=T DoCkMO=T.
 Initial guess orbital symmetries:
       Occupied  (SGG) (SGU) (PIU) (SGG) (PIU) (PIG)
       Virtual   (PIG) (SGU)
 Leave Link  401 at Fri Sep  6 09:57:48 2024, MaxMem=   104857600 cpu:               0.0 elap:               0.0
 (Enter /Users/asuyarger/Applications/G16/g16/l502.exe)
 Keep J ints in memory in canonical form, NReq=859239.
 FoFCou: FMM=F IPFlag=           0 FMFlag=           0 FMFlg1=           0
         NFxFlg=           0 DoJE=F BraDBF=F KetDBF=F FulRan=T
         wScrn=  0.000000 ICntrl=       600 IOpCl=  2 I1Cent=           0 NGrid=           0
         NMat0=    1 NMatS0=     20 NMatT0=    0 NMatD0=    1 NMtDS0=    0 NMtDT0=    0
 Symmetry not used in FoFCou.
 Two-electron integral symmetry not used.
 Closed shell SCF:
 Using DIIS extrapolation, IDIIS=  1040.
 Overlap will be assumed to be unity.
 NGot=   104857600 LenX=   104797164 LenY=   104796282
 Requested convergence on RMS density matrix=1.00D-08 within 128 cycles.
 Requested convergence on MAX density matrix=1.00D-06.
 Requested convergence on             energy=1.00D-06.
 No special actions if energy rises.

 Cycle   1  Pass 1  IDiag  1:
 E= 0.679488075730319E-01
 DIIS: error= 4.34D-03 at cycle   1 NSaved=   1.
 NSaved= 1 IEnMin= 1 EnMin= 0.679488075730319E-01 IErMin= 1 ErrMin= 4.34D-03
 ErrMax= 4.34D-03  0.00D+00 EMaxC= 1.00D-01 BMatC= 3.01D-04 BMatP= 3.01D-04
 IDIUse=3 WtCom= 9.57D-01 WtEn= 4.34D-02
 Coeff-Com:  0.100D+01
 Coeff-En:   0.100D+01
 Coeff:      0.100D+01
 GapD=    2.000 DampG=2.000 DampE=1.000 DampFc=2.0000 IDamp=-1.
 RMSDP=2.66D-03 MaxDP=6.53D-03              OVMax= 0.00D+00

 Cycle   2  Pass 1  IDiag  3:
 E= 0.673239705696531E-01 Delta-E=       -0.000624837003 Rises=F Damp=F
 DIIS: error= 8.67D-04 at cycle   2 NSaved=   2.
 NSaved= 2 IEnMin= 2 EnMin= 0.673239705696531E-01 IErMin= 2 ErrMin= 8.67D-04
 ErrMax= 8.67D-04  0.00D+00 EMaxC= 1.00D-01 BMatC= 1.20D-05 BMatP= 3.01D-04
 IDIUse=3 WtCom= 9.91D-01 WtEn= 8.67D-03
 Coeff-Com: -0.250D+00 0.125D+01
 Coeff-En:   0.000D+00 0.100D+01
 Coeff:     -0.248D+00 0.125D+01
 Fock symm off for IB=4 I1=    1 I=    4 J=    1 Cut=1.00D-07 Err=2.13D-03
 Fock matrix is not symmetric: symmetry in diagonalization turned off.
 Gap=     0.240 Goal=   None    Shift=    0.000
 RMSDP=6.65D-04 MaxDP=1.62D-03 DE=-6.25D-04 OVMax= 3.76D-03

 Cycle   3  Pass 1  IDiag  3:
 E= 0.672977580511045E-01 Delta-E=       -0.000026212519 Rises=F Damp=F
 DIIS: error= 4.35D-06 at cycle   3 NSaved=   3.
 NSaved= 3 IEnMin= 3 EnMin= 0.672977580511045E-01 IErMin= 3 ErrMin= 4.35D-06
 ErrMax= 4.35D-06  0.00D+00 EMaxC= 1.00D-01 BMatC= 3.03D-10 BMatP= 1.20D-05
 IDIUse=1 WtCom= 1.00D+00 WtEn= 0.00D+00
 Large coefficients: NSaved=  3 BigCof=    0.00 CofMax=   10.00 Det=-1.69D-21
 Inversion failed.  Reducing to  2 matrices.
 Coeff-Com: -0.505D-02 0.101D+01
 Coeff:     -0.505D-02 0.101D+01
 Gap=     0.240 Goal=   None    Shift=    0.000
 RMSDP=3.36D-06 MaxDP=8.15D-06 DE=-2.62D-05 OVMax= 1.90D-05

 Cycle   4  Pass 1  IDiag  3:
 E= 0.672977573887223E-01 Delta-E=       -0.000000000662 Rises=F Damp=F
 DIIS: error= 2.94D-09 at cycle   4 NSaved=   3.
 NSaved= 3 IEnMin= 3 EnMin= 0.672977573887223E-01 IErMin= 3 ErrMin= 2.94D-09
 ErrMax= 2.94D-09  0.00D+00 EMaxC= 1.00D-01 BMatC= 1.38D-16 BMatP= 3.03D-10
 IDIUse=1 WtCom= 1.00D+00 WtEn= 0.00D+00
 Large coefficients: NSaved=  3 BigCof=    0.00 CofMax=   10.00 Det= 0.00D+00
 Inversion failed.  Reducing to  2 matrices.
 Coeff-Com: -0.675D-03 0.100D+01
 Coeff:     -0.675D-03 0.100D+01
 Gap=     0.240 Goal=   None    Shift=    0.000
 RMSDP=2.27D-09 MaxDP=5.50D-09 DE=-6.62D-10 OVMax= 1.28D-08

 Cycle   5  Pass 2  IDiag  1:
 SCF Done:  E(RPM6) =  0.672977573887E-01 A.U. after    5 cycles
            NFock=  4  Conv=0.23D-08     -V/T= 1.0019
 KE=-3.508588043303D+01 PE=-2.183921928620D+01 EE= 2.392614262620D+01
 Leave Link  502 at Fri Sep  6 09:57:48 2024, MaxMem=   104857600 cpu:               0.0 elap:               0.0
 (Enter /Users/asuyarger/Applications/G16/g16/l701.exe)
 ... and contract with generalized density number  0.
 Compute integral first derivatives.
 Leave Link  701 at Fri Sep  6 09:57:48 2024, MaxMem=   104857600 cpu:               0.0 elap:               0.0
 (Enter /Users/asuyarger/Applications/G16/g16/l702.exe)
 L702 exits ... SP integral derivatives will be done elsewhere.
 Leave Link  702 at Fri Sep  6 09:57:48 2024, MaxMem=   104857600 cpu:               0.0 elap:               0.0
 (Enter /Users/asuyarger/Applications/G16/g16/l703.exe)
 Integral derivatives from FoFJK, PRISM(SPDF).
 Compute integral first derivatives, UseDBF=F ICtDFT=           0.
 Calling FoFJK, ICntrl=      2127 FMM=F ISym2X=1 I1Cent= 0 IOpClX= 0 NMat=1 NMatS=1 NMatT=0.
 FoFJK:  IHMeth=40 ICntrl=    2127 DoSepK=F KAlg= 0 I1Cent=           0 FoldK=F
 IRaf=         0 NMat=       1 IRICut=       1 DoRegI=T DoRafI=F ISym2E= 1 IDoP0=3 IntGTp=3.
 FoFCou: FMM=F IPFlag=           0 FMFlag=      100000 FMFlg1=         800
         NFxFlg=           0 DoJE=F BraDBF=F KetDBF=F FulRan=T
         wScrn=  0.000000 ICntrl=      2127 IOpCl=  0 I1Cent=           0 NGrid=           0
         NMat0=    1 NMatS0=      1 NMatT0=    0 NMatD0=    1 NMtDS0=    0 NMtDT0=    0
 Petite list used in FoFCou.
 Leave Link  703 at Fri Sep  6 09:57:48 2024, MaxMem=   104857600 cpu:               0.0 elap:               0.0
 (Enter /Users/asuyarger/Applications/G16/g16/l716.exe)
 Dipole        =-8.44619324D-17-2.00955852D-17 5.32907052D-15
 ***** Axes restored to original set *****
 -------------------------------------------------------------------
 Center     Atomic                   Forces (Hartrees/Bohr)
 Number     Number              X              Y              Z
 -------------------------------------------------------------------
      1        8          -0.033691609    0.000000000   -0.000000000
      2        8           0.033691609   -0.000000000    0.000000000
 -------------------------------------------------------------------
 Cartesian Forces:  Max     0.033691609 RMS     0.019451859
 Leave Link  716 at Fri Sep  6 09:57:48 2024, MaxMem=   104857600 cpu:               0.0 elap:               0.0
 (Enter /Users/asuyarger/Applications/G16/g16/l103.exe)

 GradGradGradGradGradGradGradGradGradGradGradGradGradGradGradGradGradGrad
 Berny optimization.
 Using GEDIIS/GDIIS optimizer.
 Red2BG is reusing G-inverse.
 Internal  Forces:  Max     0.033691609 RMS     0.033691609
 Search for a local minimum.
 Step number   2 out of a maximum of   20
 All quantities printed in internal units (Hartrees-Bohrs-Radians)
 RMS Force = .33692D-01 SwitMx=.10000D-02 MixMth= 1
 Mixed Optimization -- RFO/linear search
 Update second derivatives using D2CorX and points    1    2
 DE= -2.62D-03 DEPred=-1.73D-03 R= 1.52D+00
 TightC=F SS=  1.41D+00  RLast= 5.20D-02 DXNew= 5.0454D-01 1.5613D-01
 Trust test= 1.52D+00 RLast= 5.20D-02 DXMaxT set to 3.00D-01
 The second derivative matrix:
                          R1
           R1           0.62361
 ITU=  1  0
 Use linear search instead of GDIIS.
     Eigenvalues ---    0.62361
 RFO step:  Lambda= 0.00000000D+00 EMin= 6.23608887D-01
 Quartic linear search produced a step of  0.90907.
 Iteration  1 RMS(Cart)=  0.03345478 RMS(Int)=  0.00000000
 Iteration  2 RMS(Cart)=  0.00000000 RMS(Int)=  0.00000000
 ITry= 1 IFail=0 DXMaxC= 2.37D-02 DCOld= 1.00D+10 DXMaxT= 3.00D-01 DXLimC= 3.00D+00 Rises=F
 ClnCor:  largest displacement from symmetrization is 2.22D-16 for atom     2.
 Variable       Old X    -DE/DX   Delta X   Delta X   Delta X     New X
                                 (Linear)    (Quad)   (Total)
    R1        2.14306  -0.03369  -0.04731   0.00000  -0.04731   2.09575
         Item               Value     Threshold  Converged?
 Maximum Force            0.033692     0.000450     NO 
 RMS     Force            0.033692     0.000300     NO 
 Maximum Displacement     0.023656     0.001800     NO 
 RMS     Displacement     0.033455     0.001200     NO 
 Predicted change in Energy=-8.960673D-04
 Lowest energy point so far.  Saving SCF results.
 GradGradGradGradGradGradGradGradGradGradGradGradGradGradGradGradGradGrad

 Leave Link  103 at Fri Sep  6 09:57:48 2024, MaxMem=   104857600 cpu:               0.0 elap:               0.0
 (Enter /Users/asuyarger/Applications/G16/g16/l202.exe)
                          Input orientation:                          
 ---------------------------------------------------------------------
 Center     Atomic      Atomic             Coordinates (Angstroms)
 Number     Number       Type             X           Y           Z
 ---------------------------------------------------------------------
      1          8           0        1.525302   -0.697865   -0.020311
      2          8           0        0.416280   -0.697865   -0.020311
 ---------------------------------------------------------------------
 Stoichiometry    O2
 Framework group  D*H[C*(O.O)]
 Deg. of freedom     1
 Full point group                 D*H     NOp   8
 RotChk:  IX=0 Diff= 8.62D-17
 Largest Abelian subgroup         D2H     NOp   8
 Largest concise Abelian subgroup C2      NOp   2
                         Standard orientation:                         
 ---------------------------------------------------------------------
 Center     Atomic      Atomic             Coordinates (Angstroms)
 Number     Number       Type             X           Y           Z
 ---------------------------------------------------------------------
      1          8           0        0.000000    0.000000    0.554511
      2          8           0        0.000000    0.000000   -0.554511
 ---------------------------------------------------------------------
 Rotational constants (GHZ):           0.0000000          51.3788706          51.3788706
 Leave Link  202 at Fri Sep  6 09:57:48 2024, MaxMem=   104857600 cpu:               0.0 elap:               0.0
 (Enter /Users/asuyarger/Applications/G16/g16/l301.exe)
 Standard basis: VSTO-6G (5D, 7F)
 Ernie: Thresh=  0.10000D-02 Tol=  0.10000D-05 Strict=F.
  NNHCO=     0 NNPyr=     0 NCTC=     0               EPep=         0.000000000
    EC=        11.279282339  ECS=         0.656585829   EG=        -0.006365616
   EHC=         0.001779605  EAt=       -21.103462221  AtH=         0.189826616
 EPDDG=         0.000000000  ECC=        11.931282158 EAtT=        21.293288837
 There are     2 symmetry adapted cartesian basis functions of AG  symmetry.
 There are     0 symmetry adapted cartesian basis functions of B1G symmetry.
 There are     1 symmetry adapted cartesian basis functions of B2G symmetry.
 There are     1 symmetry adapted cartesian basis functions of B3G symmetry.
 There are     0 symmetry adapted cartesian basis functions of AU  symmetry.
 There are     2 symmetry adapted cartesian basis functions of B1U symmetry.
 There are     1 symmetry adapted cartesian basis functions of B2U symmetry.
 There are     1 symmetry adapted cartesian basis functions of B3U symmetry.
 There are     2 symmetry adapted basis functions of AG  symmetry.
 There are     0 symmetry adapted basis functions of B1G symmetry.
 There are     1 symmetry adapted basis functions of B2G symmetry.
 There are     1 symmetry adapted basis functions of B3G symmetry.
 There are     0 symmetry adapted basis functions of AU  symmetry.
 There are     2 symmetry adapted basis functions of B1U symmetry.
 There are     1 symmetry adapted basis functions of B2U symmetry.
 There are     1 symmetry adapted basis functions of B3U symmetry.
     8 basis functions,    48 primitive gaussians,     8 cartesian basis functions
     6 alpha electrons        6 beta electrons
       nuclear repulsion energy        33.2245709946 Hartrees.
 IExCor=    0 DFT=F Ex=HF Corr=None ExCW=0 ScaHFX=  1.000000
 ScaDFX=  1.000000  1.000000  1.000000  1.000000 ScalE2=  1.000000  1.000000
 IRadAn=      5 IRanWt=     -1 IRanGd=            0 ICorTp=0 IEmpDi=  4
 Integral buffers will be    131072 words long.
 Regular integral format.
 Two-electron integral symmetry is turned off.
 Leave Link  301 at Fri Sep  6 09:57:48 2024, MaxMem=   104857600 cpu:               0.0 elap:               0.0
 (Enter /Users/asuyarger/Applications/G16/g16/l302.exe)
 Do NDO integrals.
 NPDir=0 NMtPBC=     1 NCelOv=     1 NCel=       1 NClECP=     1 NCelD=      1
         NCelK=      1 NCelE2=     1 NClLst=     1 CellRange=     0.0.
 One-electron integrals computed using PRISM.
 NBasis=     8 RedAO= T EigKep=  1.00D+00  NBF=     2     0     1     1     0     2     1     1
 NBsUse=     8 1.00D-06 EigRej= -1.00D+00 NBFU=     2     0     1     1     0     2     1     1
 Leave Link  302 at Fri Sep  6 09:57:48 2024, MaxMem=   104857600 cpu:               0.0 elap:               0.0
 (Enter /Users/asuyarger/Applications/G16/g16/l303.exe)
 DipDrv:  MaxL=1.
 Leave Link  303 at Fri Sep  6 09:57:48 2024, MaxMem=   104857600 cpu:               0.0 elap:               0.0
 (Enter /Users/asuyarger/Applications/G16/g16/l401.exe)
 Initial guess from the checkpoint file:  "O2_PM6_Opt_Freq_Full.chk"
 B after Tr=     0.000000    0.000000    0.000000
         Rot=    1.000000    0.000000    0.000000    0.000000 Ang=   0.00 deg.
 Guess basis will be translated and rotated to current coordinates.
 JPrj=0 DoOrth=T DoCkMO=T.
 Initial guess orbital symmetries:
       Occupied  (SGG) (SGU) (PIU) (SGG) (PIU) (PIG)
       Virtual   (PIG) (SGU)
 Leave Link  401 at Fri Sep  6 09:57:48 2024, MaxMem=   104857600 cpu:               0.0 elap:               0.0
 (Enter /Users/asuyarger/Applications/G16/g16/l502.exe)
 Keep J ints in memory in canonical form, NReq=859239.
 FoFCou: FMM=F IPFlag=           0 FMFlag=           0 FMFlg1=           0
         NFxFlg=           0 DoJE=F BraDBF=F KetDBF=F FulRan=T
         wScrn=  0.000000 ICntrl=       600 IOpCl=  2 I1Cent=           0 NGrid=           0
         NMat0=    1 NMatS0=     20 NMatT0=    0 NMatD0=    1 NMtDS0=    0 NMtDT0=    0
 Symmetry not used in FoFCou.
 Two-electron integral symmetry not used.
 Closed shell SCF:
 Using DIIS extrapolation, IDIIS=  1040.
 Overlap will be assumed to be unity.
 NGot=   104857600 LenX=   104797164 LenY=   104796282
 Requested convergence on RMS density matrix=1.00D-08 within 128 cycles.
 Requested convergence on MAX density matrix=1.00D-06.
 Requested convergence on             energy=1.00D-06.
 No special actions if energy rises.

 Cycle   1  Pass 1  IDiag  1:
 E= 0.670992196127855E-01
 DIIS: error= 4.20D-03 at cycle   1 NSaved=   1.
 NSaved= 1 IEnMin= 1 EnMin= 0.670992196127855E-01 IErMin= 1 ErrMin= 4.20D-03
 ErrMax= 4.20D-03  0.00D+00 EMaxC= 1.00D-01 BMatC= 2.83D-04 BMatP= 2.83D-04
 IDIUse=3 WtCom= 9.58D-01 WtEn= 4.20D-02
 Coeff-Com:  0.100D+01
 Coeff-En:   0.100D+01
 Coeff:      0.100D+01
 GapD=    2.000 DampG=2.000 DampE=1.000 DampFc=2.0000 IDamp=-1.
 RMSDP=2.55D-03 MaxDP=6.13D-03              OVMax= 0.00D+00

 Cycle   2  Pass 1  IDiag  3:
 E= 0.665145000070382E-01 Delta-E=       -0.000584719606 Rises=F Damp=F
 DIIS: error= 8.68D-04 at cycle   2 NSaved=   2.
 NSaved= 2 IEnMin= 2 EnMin= 0.665145000070382E-01 IErMin= 2 ErrMin= 8.68D-04
 ErrMax= 8.68D-04  0.00D+00 EMaxC= 1.00D-01 BMatC= 1.21D-05 BMatP= 2.83D-04
 IDIUse=3 WtCom= 9.91D-01 WtEn= 8.68D-03
 Coeff-Com: -0.260D+00 0.126D+01
 Coeff-En:   0.000D+00 0.100D+01
 Coeff:     -0.258D+00 0.126D+01
 Fock symm off for IB=6 I1=    1 I=    5 J=    1 Cut=1.00D-07 Err=2.06D-03
 Fock matrix is not symmetric: symmetry in diagonalization turned off.
 Gap=     0.241 Goal=   None    Shift=    0.000
 RMSDP=6.65D-04 MaxDP=1.58D-03 DE=-5.85D-04 OVMax= 3.76D-03

 Cycle   3  Pass 1  IDiag  3:
 E= 0.664882548684957E-01 Delta-E=       -0.000026245139 Rises=F Damp=F
 DIIS: error= 4.45D-06 at cycle   3 NSaved=   3.
 NSaved= 3 IEnMin= 3 EnMin= 0.664882548684957E-01 IErMin= 3 ErrMin= 4.45D-06
 ErrMax= 4.45D-06  0.00D+00 EMaxC= 1.00D-01 BMatC= 3.17D-10 BMatP= 1.21D-05
 IDIUse=1 WtCom= 1.00D+00 WtEn= 0.00D+00
 Large coefficients: NSaved=  3 BigCof=    0.00 CofMax=   10.00 Det=-3.39D-21
 Inversion failed.  Reducing to  2 matrices.
 Coeff-Com: -0.516D-02 0.101D+01
 Coeff:     -0.516D-02 0.101D+01
 Gap=     0.241 Goal=   None    Shift=    0.000
 RMSDP=3.43D-06 MaxDP=8.14D-06 DE=-2.62D-05 OVMax= 1.94D-05

 Cycle   4  Pass 1  IDiag  3:
 E= 0.664882541766829E-01 Delta-E=       -0.000000000692 Rises=F Damp=F
 DIIS: error= 3.14D-09 at cycle   4 NSaved=   3.
 NSaved= 3 IEnMin= 3 EnMin= 0.664882541766829E-01 IErMin= 3 ErrMin= 3.14D-09
 ErrMax= 3.14D-09  0.00D+00 EMaxC= 1.00D-01 BMatC= 1.58D-16 BMatP= 3.17D-10
 IDIUse=1 WtCom= 1.00D+00 WtEn= 0.00D+00
 Large coefficients: NSaved=  3 BigCof=    0.00 CofMax=   10.00 Det=-2.07D-25
 Inversion failed.  Reducing to  2 matrices.
 Coeff-Com: -0.707D-03 0.100D+01
 Coeff:     -0.707D-03 0.100D+01
 Gap=     0.241 Goal=   None    Shift=    0.000
 RMSDP=2.43D-09 MaxDP=5.75D-09 DE=-6.92D-10 OVMax= 1.37D-08

 Cycle   5  Pass 2  IDiag  1:
 SCF Done:  E(RPM6) =  0.664882541767E-01 A.U. after    5 cycles
            NFock=  4  Conv=0.24D-08     -V/T= 1.0019
 KE=-3.512377260774D+01 PE=-2.202453902325D+01 EE= 2.399022889057D+01
 Leave Link  502 at Fri Sep  6 09:57:48 2024, MaxMem=   104857600 cpu:               0.0 elap:               0.0
 (Enter /Users/asuyarger/Applications/G16/g16/l701.exe)
 ... and contract with generalized density number  0.
 Compute integral first derivatives.
 Leave Link  701 at Fri Sep  6 09:57:48 2024, MaxMem=   104857600 cpu:               0.0 elap:               0.0
 (Enter /Users/asuyarger/Applications/G16/g16/l702.exe)
 L702 exits ... SP integral derivatives will be done elsewhere.
 Leave Link  702 at Fri Sep  6 09:57:48 2024, MaxMem=   104857600 cpu:               0.0 elap:               0.0
 (Enter /Users/asuyarger/Applications/G16/g16/l703.exe)
 Integral derivatives from FoFJK, PRISM(SPDF).
 Compute integral first derivatives, UseDBF=F ICtDFT=           0.
 Calling FoFJK, ICntrl=      2127 FMM=F ISym2X=1 I1Cent= 0 IOpClX= 0 NMat=1 NMatS=1 NMatT=0.
 FoFJK:  IHMeth=40 ICntrl=    2127 DoSepK=F KAlg= 0 I1Cent=           0 FoldK=F
 IRaf=         0 NMat=       1 IRICut=       1 DoRegI=T DoRafI=F ISym2E= 1 IDoP0=3 IntGTp=3.
 FoFCou: FMM=F IPFlag=           0 FMFlag=      100000 FMFlg1=         800
         NFxFlg=           0 DoJE=F BraDBF=F KetDBF=F FulRan=T
         wScrn=  0.000000 ICntrl=      2127 IOpCl=  0 I1Cent=           0 NGrid=           0
         NMat0=    1 NMatS0=      1 NMatT0=    0 NMatD0=    1 NMtDS0=    0 NMtDT0=    0
 Petite list used in FoFCou.
 Leave Link  703 at Fri Sep  6 09:57:48 2024, MaxMem=   104857600 cpu:               0.0 elap:               0.0
 (Enter /Users/asuyarger/Applications/G16/g16/l716.exe)
 Dipole        = 3.86431111D-17-1.73712576D-17-5.32907052D-15
 ***** Axes restored to original set *****
 -------------------------------------------------------------------
 Center     Atomic                   Forces (Hartrees/Bohr)
 Number     Number              X              Y              Z
 -------------------------------------------------------------------
      1        8           0.000242039    0.000000000   -0.000000000
      2        8          -0.000242039   -0.000000000    0.000000000
 -------------------------------------------------------------------
 Cartesian Forces:  Max     0.000242039 RMS     0.000139741
 Leave Link  716 at Fri Sep  6 09:57:48 2024, MaxMem=   104857600 cpu:               0.0 elap:               0.0
 (Enter /Users/asuyarger/Applications/G16/g16/l103.exe)

 GradGradGradGradGradGradGradGradGradGradGradGradGradGradGradGradGradGrad
 Berny optimization.
 Using GEDIIS/GDIIS optimizer.
 Red2BG is reusing G-inverse.
 Internal  Forces:  Max     0.000242039 RMS     0.000242039
 Search for a local minimum.
 Step number   3 out of a maximum of   20
 All quantities printed in internal units (Hartrees-Bohrs-Radians)
 RMS Force = .24204D-03 SwitMx=.10000D-02 MixMth= 2
 Mixed Optimization -- En-DIIS/RFO-DIIS
 Update second derivatives using D2CorX and points    2    3
 DE= -8.10D-04 DEPred=-8.96D-04 R= 9.03D-01
 TightC=F SS=  1.41D+00  RLast= 4.73D-02 DXNew= 5.0454D-01 1.4194D-01
 Trust test= 9.03D-01 RLast= 4.73D-02 DXMaxT set to 3.00D-01
 The second derivative matrix:
                          R1
           R1           0.71723
 ITU=  1  1
 Use linear search instead of GDIIS.
     Eigenvalues ---    0.71723
 RFO step:  Lambda= 0.00000000D+00 EMin= 7.17228298D-01
 Quartic linear search produced a step of -0.00668.
 Iteration  1 RMS(Cart)=  0.00022335 RMS(Int)=  0.00000000
 Iteration  2 RMS(Cart)=  0.00000000 RMS(Int)=  0.00000000
 ITry= 1 IFail=0 DXMaxC= 1.58D-04 DCOld= 1.00D+10 DXMaxT= 3.00D-01 DXLimC= 3.00D+00 Rises=F
 ClnCor:  largest displacement from symmetrization is 2.22D-16 for atom     2.
 Variable       Old X    -DE/DX   Delta X   Delta X   Delta X     New X
                                 (Linear)    (Quad)   (Total)
    R1        2.09575   0.00024   0.00032   0.00000   0.00032   2.09606
         Item               Value     Threshold  Converged?
 Maximum Force            0.000242     0.000450     YES
 RMS     Force            0.000242     0.000300     YES
 Maximum Displacement     0.000158     0.001800     YES
 RMS     Displacement     0.000223     0.001200     YES
 Predicted change in Energy=-4.067252D-08
 Optimization completed.
    -- Stationary point found.
                           ----------------------------
                           !   Optimized Parameters   !
                           ! (Angstroms and Degrees)  !
 --------------------------                            --------------------------
 ! Name  Definition              Value          Derivative Info.                !
 --------------------------------------------------------------------------------
 ! R1    R(1,2)                  1.109          -DE/DX =    0.0002              !
 --------------------------------------------------------------------------------
 Lowest energy point so far.  Saving SCF results.
 Largest change from initial coordinates is atom    1       0.026 Angstoms.
 GradGradGradGradGradGradGradGradGradGradGradGradGradGradGradGradGradGrad

 Leave Link  103 at Fri Sep  6 09:57:48 2024, MaxMem=   104857600 cpu:               0.0 elap:               0.0
 (Enter /Users/asuyarger/Applications/G16/g16/l202.exe)
                          Input orientation:                          
 ---------------------------------------------------------------------
 Center     Atomic      Atomic             Coordinates (Angstroms)
 Number     Number       Type             X           Y           Z
 ---------------------------------------------------------------------
      1          8           0        1.525302   -0.697865   -0.020311
      2          8           0        0.416280   -0.697865   -0.020311
 ---------------------------------------------------------------------
 Stoichiometry    O2
 Framework group  D*H[C*(O.O)]
 Deg. of freedom     1
 Full point group                 D*H     NOp   8
 RotChk:  IX=0 Diff= 8.43D-17
 Largest Abelian subgroup         D2H     NOp   8
 Largest concise Abelian subgroup C2      NOp   2
                         Standard orientation:                         
 ---------------------------------------------------------------------
 Center     Atomic      Atomic             Coordinates (Angstroms)
 Number     Number       Type             X           Y           Z
 ---------------------------------------------------------------------
      1          8           0        0.000000    0.000000    0.554511
      2          8           0        0.000000    0.000000   -0.554511
 ---------------------------------------------------------------------
 Rotational constants (GHZ):           0.0000000          51.3788706          51.3788706
 Leave Link  202 at Fri Sep  6 09:57:48 2024, MaxMem=   104857600 cpu:               0.0 elap:               0.0
 (Enter /Users/asuyarger/Applications/G16/g16/l601.exe)
 Copying SCF densities to generalized density rwf, IOpCl= 0 IROHF=0.

 **********************************************************************

            Population analysis using the SCF density.

 **********************************************************************

 Orbital symmetries:
       Occupied  (SGG) (SGU) (PIU) (PIU) (SGG) (PIG)
       Virtual   (PIG) (SGU)
 Unable to determine electronic state:  partially filled degenerate orbitals.
 Alpha  occ. eigenvalues --   -1.30641  -1.06943  -0.66948  -0.62010  -0.61465
 Alpha  occ. eigenvalues --   -0.30386
 Alpha virt. eigenvalues --   -0.06282   0.09119
     Molecular Orbital Coefficients:
                           1         2         3         4         5
                       (SGG)--O  (SGU)--O  (PIU)--O  (PIU)--O  (SGG)--O
     Eigenvalues --    -1.30641  -1.06943  -0.66948  -0.62010  -0.61465
   1 1   O  1S          0.57034   0.67791   0.00000  -0.00000   0.41799
   2        1PX         0.00000  -0.00000   0.00000   0.70711   0.00000
   3        1PY        -0.00000   0.00000   0.70711  -0.00000  -0.00000
   4        1PZ        -0.41799   0.20111   0.00000  -0.00000   0.57034
   5 2   O  1S          0.57034  -0.67791   0.00000  -0.00000   0.41799
   6        1PX        -0.00000  -0.00000   0.00000   0.70711   0.00000
   7        1PY         0.00000   0.00000   0.70711  -0.00000  -0.00000
   8        1PZ         0.41799   0.20111  -0.00000   0.00000  -0.57034
                           6         7         8
                       (PIG)--O  (PIG)--V  (SGU)--V
     Eigenvalues --    -0.30386  -0.06282   0.09119
   1 1   O  1S         -0.00000   0.00000  -0.20111
   2        1PX         0.70711  -0.00000  -0.00000
   3        1PY        -0.00000   0.70711   0.00000
   4        1PZ        -0.00000   0.00000   0.67791
   5 2   O  1S         -0.00000  -0.00000   0.20111
   6        1PX        -0.70711  -0.00000   0.00000
   7        1PY         0.00000  -0.70711  -0.00000
   8        1PZ         0.00000  -0.00000   0.67791
     Density Matrix:
                           1         2         3         4         5
   1 1   O  1S          1.91911
   2        1PX         0.00000   2.00000
   3        1PY        -0.00000   0.00000   1.00000
   4        1PZ         0.27266   0.00000  -0.00000   1.08089
   5 2   O  1S          0.08089  -0.00000  -0.00000  -0.27266   1.91911
   6        1PX         0.00000   0.00000   0.00000  -0.00000  -0.00000
   7        1PY         0.00000  -0.00000   1.00000  -0.00000   0.00000
   8        1PZ         0.27266   0.00000  -0.00000  -0.91911  -0.27266
                           6         7         8
   6        1PX         2.00000
   7        1PY        -0.00000   1.00000
   8        1PZ        -0.00000   0.00000   1.08089
    Full Mulliken population analysis:
                           1         2         3         4         5
   1 1   O  1S          1.91911
   2        1PX         0.00000   2.00000
   3        1PY         0.00000   0.00000   1.00000
   4        1PZ         0.00000   0.00000   0.00000   1.08089
   5 2   O  1S          0.00000   0.00000   0.00000   0.00000   1.91911
   6        1PX         0.00000   0.00000   0.00000   0.00000   0.00000
   7        1PY         0.00000   0.00000   0.00000   0.00000   0.00000
   8        1PZ         0.00000   0.00000   0.00000   0.00000   0.00000
                           6         7         8
   6        1PX         2.00000
   7        1PY         0.00000   1.00000
   8        1PZ         0.00000   0.00000   1.08089
     Gross orbital populations:
                           1
   1 1   O  1S          1.91911
   2        1PX         2.00000
   3        1PY         1.00000
   4        1PZ         1.08089
   5 2   O  1S          1.91911
   6        1PX         2.00000
   7        1PY         1.00000
   8        1PZ         1.08089
          Condensed to atoms (all electrons):
               1          2
     1  O    6.000000   0.000000
     2  O    0.000000   6.000000
 Mulliken charges:
               1
     1  O   -0.000000
     2  O    0.000000
 Sum of Mulliken charges =   0.00000
 Mulliken charges with hydrogens summed into heavy atoms:
               1
     1  O   -0.000000
     2  O    0.000000
 Charge=              0.0000 electrons
 Dipole moment (field-independent basis, Debye):
    X=              0.0000    Y=             -0.0000    Z=             -0.0000  Tot=              0.0000
 N-N= 3.322457099459D+01 E-N=-2.202453901257D+01  KE=-3.512377260774D+01
 Symmetry AG   KE=-1.247211113433D+01
 Symmetry B1G  KE= 0.000000000000D+00
 Symmetry B2G  KE=-4.879016924689D+00
 Symmetry B3G  KE= 0.000000000000D+00
 Symmetry AU   KE= 0.000000000000D+00
 Symmetry B1U  KE=-6.815540549353D+00
 Symmetry B2U  KE=-5.478551999682D+00
 Symmetry B3U  KE=-5.478551999682D+00
 StAtR1:  DoIntr=F IAtCor=3 NETot=      12 Failed=F Sum=  4.00D+00 SumC=  0.00D+00
 There are a total of       43208 grid points.
 ElSum from          density=       12.2069644877
 ElSum from atomic densities=       15.9999949721
 Hirshfeld populations at iteration   1 (CA, CB, DipXYZ):
               1          2          3          4          5
     1  O    3.051741   3.051741  -0.000000  -0.000000   0.102004
     2  O    3.051741   3.051741  -0.000000  -0.000000  -0.102004
       Tot   6.103482   6.103482  -0.000000  -0.000000  -0.000000

 Dip from Atomic Chgs             -0.000000   0.000000  -0.000000
         Total Dipole             -0.000000  -0.000000  -0.000000

 Hirshfeld charges, spin densities, dipoles, and CM5 charges using IRadAn=      5:
              Q-H        S-H        Dx         Dy         Dz        Q-CM5   
     1  O   -0.103482   0.000000  -0.000000  -0.000000   0.102004  -0.103482
     2  O   -0.103482   0.000000  -0.000000  -0.000000  -0.102004  -0.103482
       Tot  -0.206964   0.000000  -0.000000  -0.000000  -0.000000  -0.206964
 Hirshfeld charges with hydrogens summed into heavy atoms:
              Q-H       Q-CM5   
     1  O   -0.103482  -0.103482
     2  O   -0.103482  -0.103482
 
 EQQ= 0.000000000000E+00 EQD= 0.000000000000E+00 EDD=-0.113035798894E-02
 EQQ+QD+DD=-0.113035798894E-02
 
 Orbital energies and kinetic energies (alpha):
                                 1                 2
   1         (SGG)--O         -1.306410         -3.440348
   2         (SGU)--O         -1.069426         -3.407770
   3         (PIU)--O         -0.669479         -2.739276
   4         (PIU)--O         -0.620100         -2.739276
   5         (SGG)--O         -0.614653         -2.795708
   6         (PIG)--O         -0.303860         -2.439508
   7         (PIG)--V         -0.062820         -2.439508
   8         (SGU)--V          0.091192         -2.273224
 Total kinetic energy from orbitals=-3.512377260774D+01
 Leave Link  601 at Fri Sep  6 09:57:48 2024, MaxMem=   104857600 cpu:               0.0 elap:               0.0
 (Enter /Users/asuyarger/Applications/G16/g16/l9999.exe)
 1\1\GINC-JEFFSMACSTUDIO\FOpt\RPM6\ZDO\O2\ROOT\06-Sep-2024\0\\#p opt fr
 eq=raman pm6 guess=save pop=(hirshfeld,full) geom=connectivity polar\\
 O2 PM6 Opt Freq\\0,1\O,1.5253023702,-0.69786534,-0.02031144\O,0.416279
 8698,-0.69786534,-0.02031144\\Version=EM64M-G16RevA.03\HF=0.0664883\RM
 SD=2.426e-09\RMSF=1.397e-04\Dipole=0.,0.,0.\PG=D*H [C*(O1.O1)]\\@


            ARSENIC

 FOR SMELTER FUMES HAVE I BEEN NAMED,
    I AM AN EVIL POISONOUS SMOKE...
 BUT WHEN FROM POISON I AM FREED,
    THROUGH ART AND SLEIGHT OF HAND,
 THEN CAN I CURE BOTH MAN AND BEAST,
    FROM DIRE DISEASE OFTTIMES DIRECT THEM;
 BUT PREPARE ME CORRECTLY, AND TAKE GREAT CARE
    THAT YOU FAITHFULLY KEEP WATCHFUL GUARD OVER ME;
 FOR ELSE I AM POISON, AND POISON REMAIN,
    THAT PIERCES THE HEART OF MANY A ONE.

 ATTRIBUTED TO THE PROBABLY MYTHICAL 15TH
 CENTURY MONK, BASILIUS VALENTINUS
 Leave Link 9999 at Fri Sep  6 09:57:48 2024, MaxMem=   104857600 cpu:               0.0 elap:               0.0
 Job cpu time:       0 days  0 hours  0 minutes  1.1 seconds.
 Elapsed time:       0 days  0 hours  0 minutes  0.8 seconds.
 File lengths (MBytes):  RWF=      6 Int=      0 D2E=      0 Chk=      2 Scr=      1
 Normal termination of Gaussian 16 at Fri Sep  6 09:57:48 2024.
 (Enter /Users/asuyarger/Applications/G16/g16/l1.exe)
 Link1:  Proceeding to internal job step number  2.
 -------------------------------------------------------------
 #P Geom=AllCheck Guess=TCheck SCRF=Check GenChk RPM6/ZDO Freq
 -------------------------------------------------------------
 1/10=4,29=7,30=1,38=1,40=1/1,3;
 2/12=2,40=1/2;
 3/5=2,14=-4,25=1,41=3900000,70=2,71=2,116=1,135=40,140=1/1,2,3;
 4/5=101,35=1/1;
 5/5=2,35=1,38=6,98=1/2;
 8/6=4,10=90,11=11/1;
 10/13=10,15=4/2;
 11/6=3,8=1,9=11,15=111,16=1/1,2,10;
 10/6=1/2;
 6/7=3,28=1,79=1/1;
 7/8=1,10=1,25=1/1,2,3,16;
 1/10=4,30=1/3;
 99//99;
 Leave Link    1 at Fri Sep  6 09:57:48 2024, MaxMem=   104857600 cpu:               0.0 elap:               0.0
 (Enter /Users/asuyarger/Applications/G16/g16/l101.exe)
 Structure from the checkpoint file:  "O2_PM6_Opt_Freq_Full.chk"
 ---------------
 O2 PM6 Opt Freq
 ---------------
 Charge =  0 Multiplicity = 1
 Redundant internal coordinates found in file.  (old form).
 O,0,1.5253023702,-0.69786534,-0.02031144
 O,0,0.4162798698,-0.69786534,-0.02031144
 Recover connectivity data from disk.
 ITRead=  0  0
 MicOpt= -1 -1
 NAtoms=      2 NQM=        2 NQMF=       0 NMMI=      0 NMMIF=      0
                NMic=       0 NMicF=      0.
                    Isotopes and Nuclear Properties:
 (Nuclear quadrupole moments (NQMom) in fm**2, nuclear magnetic moments (NMagM)
  in nuclear magnetons)

  Atom         1           2
 IAtWgt=          16          16
 AtmWgt=  15.9949146  15.9949146
 NucSpn=           0           0
 AtZEff=   6.0000000   6.0000000
 NQMom=    0.0000000   0.0000000
 NMagM=    0.0000000   0.0000000
 AtZNuc=   8.0000000   8.0000000
 Leave Link  101 at Fri Sep  6 09:57:49 2024, MaxMem=   104857600 cpu:               0.1 elap:               0.1
 (Enter /Users/asuyarger/Applications/G16/g16/l103.exe)

 GradGradGradGradGradGradGradGradGradGradGradGradGradGradGradGradGradGrad
 Berny optimization.
 Initialization pass.
                           ----------------------------
                           !    Initial Parameters    !
                           ! (Angstroms and Degrees)  !
 --------------------------                            --------------------------
 ! Name  Definition              Value          Derivative Info.                !
 --------------------------------------------------------------------------------
 ! R1    R(1,2)                  1.109          calculate D2E/DX2 analytically  !
 --------------------------------------------------------------------------------
 Trust Radius=3.00D-01 FncErr=1.00D-07 GrdErr=1.00D-07 EigMax=2.50D+02 EigMin=1.00D-04
 Number of steps in this run=      2 maximum allowed number of steps=      2.
 GradGradGradGradGradGradGradGradGradGradGradGradGradGradGradGradGradGrad

 Leave Link  103 at Fri Sep  6 09:57:49 2024, MaxMem=   104857600 cpu:               0.0 elap:               0.0
 (Enter /Users/asuyarger/Applications/G16/g16/l202.exe)
                          Input orientation:                          
 ---------------------------------------------------------------------
 Center     Atomic      Atomic             Coordinates (Angstroms)
 Number     Number       Type             X           Y           Z
 ---------------------------------------------------------------------
      1          8           0        1.525302   -0.697865   -0.020311
      2          8           0        0.416280   -0.697865   -0.020311
 ---------------------------------------------------------------------
 Stoichiometry    O2
 Framework group  D*H[C*(O.O)]
 Deg. of freedom     1
 Full point group                 D*H     NOp   8
 RotChk:  IX=0 Diff= 8.90D-17
 Largest Abelian subgroup         D2H     NOp   8
 Largest concise Abelian subgroup C2      NOp   2
                         Standard orientation:                         
 ---------------------------------------------------------------------
 Center     Atomic      Atomic             Coordinates (Angstroms)
 Number     Number       Type             X           Y           Z
 ---------------------------------------------------------------------
      1          8           0        0.000000    0.000000    0.554511
      2          8           0        0.000000    0.000000   -0.554511
 ---------------------------------------------------------------------
 Rotational constants (GHZ):           0.0000000          51.3788706          51.3788706
 Leave Link  202 at Fri Sep  6 09:57:49 2024, MaxMem=   104857600 cpu:               0.0 elap:               0.0
 (Enter /Users/asuyarger/Applications/G16/g16/l301.exe)
 Standard basis: VSTO-6G (5D, 7F)
 Ernie: Thresh=  0.10000D-02 Tol=  0.10000D-05 Strict=F.
  NNHCO=     0 NNPyr=     0 NCTC=     0               EPep=         0.000000000
    EC=        11.279282339  ECS=         0.656585829   EG=        -0.006365616
   EHC=         0.001779605  EAt=       -21.103462221  AtH=         0.189826616
 EPDDG=         0.000000000  ECC=        11.931282158 EAtT=        21.293288837
 There are     2 symmetry adapted cartesian basis functions of AG  symmetry.
 There are     0 symmetry adapted cartesian basis functions of B1G symmetry.
 There are     1 symmetry adapted cartesian basis functions of B2G symmetry.
 There are     1 symmetry adapted cartesian basis functions of B3G symmetry.
 There are     0 symmetry adapted cartesian basis functions of AU  symmetry.
 There are     2 symmetry adapted cartesian basis functions of B1U symmetry.
 There are     1 symmetry adapted cartesian basis functions of B2U symmetry.
 There are     1 symmetry adapted cartesian basis functions of B3U symmetry.
 There are     2 symmetry adapted basis functions of AG  symmetry.
 There are     0 symmetry adapted basis functions of B1G symmetry.
 There are     1 symmetry adapted basis functions of B2G symmetry.
 There are     1 symmetry adapted basis functions of B3G symmetry.
 There are     0 symmetry adapted basis functions of AU  symmetry.
 There are     2 symmetry adapted basis functions of B1U symmetry.
 There are     1 symmetry adapted basis functions of B2U symmetry.
 There are     1 symmetry adapted basis functions of B3U symmetry.
     8 basis functions,    48 primitive gaussians,     8 cartesian basis functions
     6 alpha electrons        6 beta electrons
       nuclear repulsion energy        33.2245709946 Hartrees.
 IExCor=    0 DFT=F Ex=HF Corr=None ExCW=0 ScaHFX=  1.000000
 ScaDFX=  1.000000  1.000000  1.000000  1.000000 ScalE2=  1.000000  1.000000
 IRadAn=      5 IRanWt=     -1 IRanGd=            0 ICorTp=0 IEmpDi=  4
 Integral buffers will be    131072 words long.
 Regular integral format.
 Two-electron integral symmetry is turned off.
 Leave Link  301 at Fri Sep  6 09:57:49 2024, MaxMem=   104857600 cpu:               0.0 elap:               0.0
 (Enter /Users/asuyarger/Applications/G16/g16/l302.exe)
 Do NDO integrals.
 NPDir=0 NMtPBC=     1 NCelOv=     1 NCel=       1 NClECP=     1 NCelD=      1
         NCelK=      1 NCelE2=     1 NClLst=     1 CellRange=     0.0.
 One-electron integrals computed using PRISM.
 NBasis=     8 RedAO= T EigKep=  1.00D+00  NBF=     2     0     1     1     0     2     1     1
 NBsUse=     8 1.00D-06 EigRej= -1.00D+00 NBFU=     2     0     1     1     0     2     1     1
 Leave Link  302 at Fri Sep  6 09:57:49 2024, MaxMem=   104857600 cpu:               0.0 elap:               0.0
 (Enter /Users/asuyarger/Applications/G16/g16/l303.exe)
 DipDrv:  MaxL=1.
 Leave Link  303 at Fri Sep  6 09:57:49 2024, MaxMem=   104857600 cpu:               0.0 elap:               0.0
 (Enter /Users/asuyarger/Applications/G16/g16/l401.exe)
 Initial guess from the checkpoint file:  "O2_PM6_Opt_Freq_Full.chk"
 B after Tr=    -0.000000    0.000000    0.000000
         Rot=    1.000000    0.000000    0.000000    0.000000 Ang=   0.00 deg.
 Guess basis will be translated and rotated to current coordinates.
 JPrj=0 DoOrth=T DoCkMO=T.
 Initial guess orbital symmetries:
       Occupied  (SGG) (SGU) (PIU) (PIU) (SGG) (PIG)
       Virtual   (PIG) (SGU)
 Leave Link  401 at Fri Sep  6 09:57:49 2024, MaxMem=   104857600 cpu:               0.0 elap:               0.0
 (Enter /Users/asuyarger/Applications/G16/g16/l502.exe)
 Keep J ints in memory in canonical form, NReq=859239.
 FoFCou: FMM=F IPFlag=           0 FMFlag=           0 FMFlg1=           0
         NFxFlg=           0 DoJE=F BraDBF=F KetDBF=F FulRan=T
         wScrn=  0.000000 ICntrl=       600 IOpCl=  2 I1Cent=           0 NGrid=           0
         NMat0=    1 NMatS0=     20 NMatT0=    0 NMatD0=    1 NMtDS0=    0 NMtDT0=    0
 Symmetry not used in FoFCou.
 Two-electron integral symmetry not used.
 Closed shell SCF:
 Using DIIS extrapolation, IDIIS=  1040.
 Overlap will be assumed to be unity.
 NGot=   104857600 LenX=   104797164 LenY=   104796282
 Requested convergence on RMS density matrix=1.00D-08 within 128 cycles.
 Requested convergence on MAX density matrix=1.00D-06.
 Requested convergence on             energy=1.00D-06.
 No special actions if energy rises.

 Cycle   1  Pass 1  IDiag  1:
 E= 0.664882541766900E-01
 DIIS: error= 1.15D-14 at cycle   1 NSaved=   1.
 NSaved= 1 IEnMin= 1 EnMin= 0.664882541766900E-01 IErMin= 1 ErrMin= 1.15D-14
 ErrMax= 1.15D-14  0.00D+00 EMaxC= 1.00D-01 BMatC= 2.10D-27 BMatP= 2.10D-27
 IDIUse=1 WtCom= 1.00D+00 WtEn= 0.00D+00
 Coeff-Com:  0.100D+01
 Coeff:      0.100D+01
 RMSDP=6.98D-15 MaxDP=1.67D-14              OVMax= 0.00D+00

 Cycle   2  Pass 2  IDiag  1:
 SCF Done:  E(RPM6) =  0.664882541767E-01 A.U. after    2 cycles
            NFock=  1  Conv=0.70D-14     -V/T= 1.0019
 KE=-3.512377260774D+01 PE=-2.202453901257D+01 EE= 2.399022887989D+01
 Leave Link  502 at Fri Sep  6 09:57:49 2024, MaxMem=   104857600 cpu:               0.0 elap:               0.0
 (Enter /Users/asuyarger/Applications/G16/g16/l801.exe)
 Range of M.O.s used for correlation:     1     8
 NBasis=     8 NAE=     6 NBE=     6 NFC=     0 NFV=     0
 NROrb=      8 NOA=     6 NOB=     6 NVA=     2 NVB=     2
 Leave Link  801 at Fri Sep  6 09:57:49 2024, MaxMem=   104857600 cpu:               0.0 elap:               0.0
 (Enter /Users/asuyarger/Applications/G16/g16/l1002.exe)
 Minotr:  Closed shell wavefunction.
          Direct CPHF calculation.
          Differentiating once with respect to electric field.
                with respect to dipole field.
          Electric field/nuclear overlap derivatives assumed to be zero.
          Using symmetry in CPHF.
          Requested convergence is 1.0D-08 RMS, and 1.0D-07 maximum.
          NewPWx=F KeepS1=T KeepF1=T KeepIn=T MapXYZ=F SortEE=F KeepMc=T.
 Keep J ints in memory in canonical form, NReq=859587.
 FoFCou: FMM=F IPFlag=           0 FMFlag=           0 FMFlg1=           0
         NFxFlg=           0 DoJE=F BraDBF=F KetDBF=F FulRan=T
         wScrn=  0.000000 ICntrl=       600 IOpCl=  2 I1Cent=           0 NGrid=           0
         NMat0=    1 NMatS0=     20 NMatT0=    0 NMatD0=    1 NMtDS0=    0 NMtDT0=    0
 Symmetry not used in FoFCou.
 Two-electron integral symmetry not used.
          MDV=     104857600 using IRadAn=       1.
          Solving linear equations separately, MaxMat=       0.
          There are     3 degrees of freedom in the 1st order CPHF.  IDoFFX=0 NUNeed=     3.
 LinEq1:  Iter=  0 NonCon=     3 RMS=5.91D-01 Max=1.73D+00 NDo=     3
 AX will form     3 AO Fock derivatives at one time.
 LinEq1:  Iter=  1 NonCon=     1 RMS=6.29D-02 Max=1.61D-01 NDo=     3
 LinEq1:  Iter=  2 NonCon=     1 RMS=4.21D-03 Max=1.11D-02 NDo=     3
 LinEq1:  Iter=  3 NonCon=     0 RMS=6.48D-19 Max=1.52D-18 NDo=     3
 Linear equations converged to 1.000D-08 1.000D-07 after     3 iterations.
 End of Minotr F.D. properties file   721 does not exist.
 End of Minotr F.D. properties file   722 does not exist.
 End of Minotr F.D. properties file   788 does not exist.
 Leave Link 1002 at Fri Sep  6 09:57:49 2024, MaxMem=   104857600 cpu:               0.0 elap:               0.0
 (Enter /Users/asuyarger/Applications/G16/g16/l1101.exe)
 Using compressed storage, NAtomX=     2.
 Will process      3 centers per pass.
 Leave Link 1101 at Fri Sep  6 09:57:49 2024, MaxMem=   104857600 cpu:               0.0 elap:               0.0
 (Enter /Users/asuyarger/Applications/G16/g16/l1102.exe)
 Symmetrizing basis deriv contribution to polar:
 IMax=3 JMax=2 DiffMx= 0.00D+00
 Leave Link 1102 at Fri Sep  6 09:57:49 2024, MaxMem=   104857600 cpu:               0.0 elap:               0.0
 (Enter /Users/asuyarger/Applications/G16/g16/l1110.exe)
 Forming Gx(P) for the SCF density, NAtomX=     2.
 Integral derivatives from FoFJK, PRISM(SPDF).
 Do as many integral derivatives as possible in FoFJK.
 G2DrvN: MDV=     104798456.
 G2DrvN: will do     3 centers at a time, making    1 passes.
 PxScal for G2LodP:  IOpCl= 0 ISclPx=1 IMOff=     1 NMtTot=     4 NTT=      36 ScalPx= 1.87D+00
 Calling FoFCou, ICntrl=  3107 FMM=F I1Cent=   0 AccDes= 0.00D+00.
 FoFJK:  IHMeth=40 ICntrl=    3107 DoSepK=F KAlg= 0 I1Cent=           0 FoldK=F
 IRaf=         0 NMat=       1 IRICut=       1 DoRegI=T DoRafI=F ISym2E= 0 IDoP0=3 IntGTp=3.
 FoFCou: FMM=F IPFlag=           0 FMFlag=      100000 FMFlg1=           0
         NFxFlg=           0 DoJE=F BraDBF=F KetDBF=F FulRan=T
         wScrn=  0.000000 ICntrl=      3107 IOpCl=  0 I1Cent=           0 NGrid=           0
         NMat0=    1 NMatS0=      1 NMatT0=    0 NMatD0=    4 NMtDS0=    3 NMtDT0=    0
 Symmetry not used in FoFCou.
 End of G2Drv F.D. properties file   721 does not exist.
 End of G2Drv F.D. properties file   722 does not exist.
 End of G2Drv F.D. properties file   788 does not exist.
 Leave Link 1110 at Fri Sep  6 09:57:49 2024, MaxMem=   104857600 cpu:               0.0 elap:               0.0
 (Enter /Users/asuyarger/Applications/G16/g16/l1002.exe)
 Minotr:  Closed shell wavefunction.
          IDoAtm=11
          Direct CPHF calculation.
          Differentiating once with respect to electric field.
                with respect to dipole field.
          Differentiating once with respect to nuclear coordinates.
          Electric field/nuclear overlap derivatives assumed to be zero.
          Using symmetry in CPHF.
          Requested convergence is 1.0D-08 RMS, and 1.0D-07 maximum.
          NewPWx=T KeepS1=F KeepF1=F KeepIn=T MapXYZ=F SortEE=F KeepMc=T.
 Keep J ints in memory in canonical form, NReq=859634.
 FoFCou: FMM=F IPFlag=           0 FMFlag=           0 FMFlg1=           0
         NFxFlg=           0 DoJE=F BraDBF=F KetDBF=F FulRan=T
         wScrn=  0.000000 ICntrl=       600 IOpCl=  2 I1Cent=           0 NGrid=           0
         NMat0=    1 NMatS0=     20 NMatT0=    0 NMatD0=    1 NMtDS0=    0 NMtDT0=    0
 Symmetry not used in FoFCou.
 Two-electron integral symmetry not used.
          MDV=     104857600 using IRadAn=       1.
          Solving linear equations separately, MaxMat=       0.
          There are     6 degrees of freedom in the 1st order CPHF.  IDoFFX=4 NUNeed=     6.
 Recover   3 previous solutions.
 LinEq1:  Iter=  0 NonCon=     3 RMS=1.17D-01 Max=3.13D-01 NDo=     3
 AX will form     3 AO Fock derivatives at one time.
 LinEq1:  Iter=  1 NonCon=     1 RMS=8.82D-03 Max=2.35D-02 NDo=     3
 LinEq1:  Iter=  2 NonCon=     1 RMS=5.20D-04 Max=1.29D-03 NDo=     3
 LinEq1:  Iter=  3 NonCon=     0 RMS=5.14D-18 Max=1.78D-17 NDo=     3
 Linear equations converged to 1.000D-08 1.000D-07 after     3 iterations.
 FullF1:  Do perturbations      1 to       3.
 Isotropic polarizability for W=    0.000000        4.33 Bohr**3.
 FullF1:  Do perturbations      1 to       6.
 End of Minotr F.D. properties file   721 does not exist.
 End of Minotr F.D. properties file   722 does not exist.
 End of Minotr F.D. properties file   788 does not exist.
 Leave Link 1002 at Fri Sep  6 09:57:49 2024, MaxMem=   104857600 cpu:               0.0 elap:               0.0
 (Enter /Users/asuyarger/Applications/G16/g16/l601.exe)
 Copying SCF densities to generalized density rwf, IOpCl= 0 IROHF=0.

 **********************************************************************

            Population analysis using the SCF density.

 **********************************************************************

 Orbital symmetries:
       Occupied  (SGG) (SGU) (PIU) (PIU) (SGG) (PIG)
       Virtual   (PIG) (SGU)
 Unable to determine electronic state:  partially filled degenerate orbitals.
 Alpha  occ. eigenvalues --   -1.30641  -1.06943  -0.66948  -0.62010  -0.61465
 Alpha  occ. eigenvalues --   -0.30386
 Alpha virt. eigenvalues --   -0.06282   0.09119
     Molecular Orbital Coefficients:
                           1         2         3         4         5
                       (SGG)--O  (SGU)--O  (PIU)--O  (PIU)--O  (SGG)--O
     Eigenvalues --    -1.30641  -1.06943  -0.66948  -0.62010  -0.61465
   1 1   O  1S          0.57034   0.67791   0.00000   0.00000   0.41799
   2        1PX         0.00000   0.00000   0.00000   0.70711   0.00000
   3        1PY         0.00000   0.00000   0.70711   0.00000   0.00000
   4        1PZ        -0.41799   0.20111   0.00000   0.00000   0.57034
   5 2   O  1S          0.57034  -0.67791   0.00000   0.00000   0.41799
   6        1PX         0.00000   0.00000   0.00000   0.70711   0.00000
   7        1PY         0.00000   0.00000   0.70711   0.00000   0.00000
   8        1PZ         0.41799   0.20111   0.00000   0.00000  -0.57034
                           6         7         8
                       (PIG)--O  (PIG)--V  (SGU)--V
     Eigenvalues --    -0.30386  -0.06282   0.09119
   1 1   O  1S          0.00000   0.00000  -0.20111
   2        1PX         0.70711   0.00000   0.00000
   3        1PY         0.00000   0.70711   0.00000
   4        1PZ         0.00000   0.00000   0.67791
   5 2   O  1S          0.00000   0.00000   0.20111
   6        1PX        -0.70711   0.00000   0.00000
   7        1PY         0.00000  -0.70711   0.00000
   8        1PZ         0.00000   0.00000   0.67791
     Density Matrix:
                           1         2         3         4         5
   1 1   O  1S          1.91911
   2        1PX         0.00000   2.00000
   3        1PY         0.00000  -0.00000   1.00000
   4        1PZ         0.27266   0.00000   0.00000   1.08089
   5 2   O  1S          0.08089   0.00000   0.00000  -0.27266   1.91911
   6        1PX         0.00000  -0.00000   0.00000   0.00000   0.00000
   7        1PY        -0.00000   0.00000   1.00000   0.00000   0.00000
   8        1PZ         0.27266   0.00000   0.00000  -0.91911  -0.27266
                           6         7         8
   6        1PX         2.00000
   7        1PY        -0.00000   1.00000
   8        1PZ         0.00000  -0.00000   1.08089
    Full Mulliken population analysis:
                           1         2         3         4         5
   1 1   O  1S          1.91911
   2        1PX         0.00000   2.00000
   3        1PY         0.00000   0.00000   1.00000
   4        1PZ         0.00000   0.00000   0.00000   1.08089
   5 2   O  1S          0.00000   0.00000   0.00000   0.00000   1.91911
   6        1PX         0.00000   0.00000   0.00000   0.00000   0.00000
   7        1PY         0.00000   0.00000   0.00000   0.00000   0.00000
   8        1PZ         0.00000   0.00000   0.00000   0.00000   0.00000
                           6         7         8
   6        1PX         2.00000
   7        1PY         0.00000   1.00000
   8        1PZ         0.00000   0.00000   1.08089
     Gross orbital populations:
                           1
   1 1   O  1S          1.91911
   2        1PX         2.00000
   3        1PY         1.00000
   4        1PZ         1.08089
   5 2   O  1S          1.91911
   6        1PX         2.00000
   7        1PY         1.00000
   8        1PZ         1.08089
          Condensed to atoms (all electrons):
               1          2
     1  O    6.000000   0.000000
     2  O    0.000000   6.000000
 Mulliken charges:
               1
     1  O   -0.000000
     2  O    0.000000
 Sum of Mulliken charges =   0.00000
 Mulliken charges with hydrogens summed into heavy atoms:
               1
     1  O   -0.000000
     2  O    0.000000
 APT charges:
               1
     1  O   -0.000000
     2  O    0.000000
 Sum of APT charges =   0.00000
 APT charges with hydrogens summed into heavy atoms:
               1
     1  O   -0.000000
     2  O    0.000000
 Charge=              0.0000 electrons
 Dipole moment (field-independent basis, Debye):
    X=             -0.0000    Y=             -0.0000    Z=             -0.0000  Tot=              0.0000
 N-N= 3.322457099459D+01 E-N=-2.202453901257D+01  KE=-3.512377260774D+01
 Symmetry AG   KE=-1.247211113433D+01
 Symmetry B1G  KE= 0.000000000000D+00
 Symmetry B2G  KE=-4.879016924689D+00
 Symmetry B3G  KE= 0.000000000000D+00
 Symmetry AU   KE= 0.000000000000D+00
 Symmetry B1U  KE=-6.815540549353D+00
 Symmetry B2U  KE=-5.478551999682D+00
 Symmetry B3U  KE=-5.478551999682D+00
 StAtR1:  DoIntr=F IAtCor=3 NETot=      12 Failed=F Sum=  4.00D+00 SumC=  0.00D+00
 There are a total of       43208 grid points.
 ElSum from          density=       12.2069644877
 ElSum from atomic densities=       15.9999949721
 Hirshfeld populations at iteration   1 (CA, CB, DipXYZ):
               1          2          3          4          5
     1  O    3.051741   3.051741  -0.000000  -0.000000   0.102004
     2  O    3.051741   3.051741  -0.000000  -0.000000  -0.102004
       Tot   6.103482   6.103482  -0.000000  -0.000000  -0.000000

 Dip from Atomic Chgs             -0.000000   0.000000  -0.000000
         Total Dipole             -0.000000  -0.000000  -0.000000

 Hirshfeld charges, spin densities, dipoles, and CM5 charges using IRadAn=      5:
              Q-H        S-H        Dx         Dy         Dz        Q-CM5   
     1  O   -0.103482   0.000000  -0.000000  -0.000000   0.102004  -0.103482
     2  O   -0.103482   0.000000  -0.000000  -0.000000  -0.102004  -0.103482
       Tot  -0.206964   0.000000  -0.000000  -0.000000  -0.000000  -0.206964
 Hirshfeld charges with hydrogens summed into heavy atoms:
              Q-H       Q-CM5   
     1  O   -0.103482  -0.103482
     2  O   -0.103482  -0.103482
 
 EQQ= 0.000000000000E+00 EQD= 0.000000000000E+00 EDD=-0.113035798894E-02
 EQQ+QD+DD=-0.113035798894E-02
 
 Orbital energies and kinetic energies (alpha):
                                 1                 2
   1         (SGG)--O         -1.306410         -3.440348
   2         (SGU)--O         -1.069426         -3.407770
   3         (PIU)--O         -0.669479         -2.739276
   4         (PIU)--O         -0.620100         -2.739276
   5         (SGG)--O         -0.614653         -2.795708
   6         (PIG)--O         -0.303860         -2.439508
   7         (PIG)--V         -0.062820         -2.439508
   8         (SGU)--V          0.091192         -2.273224
 Total kinetic energy from orbitals=-3.512377260774D+01
  Exact polarizability:   0.108   0.000   0.245  -0.000   0.000  12.647
 Approx polarizability:   0.046  -0.000   0.205  -0.000  -0.000  11.198
 Leave Link  601 at Fri Sep  6 09:57:49 2024, MaxMem=   104857600 cpu:               0.0 elap:               0.0
 (Enter /Users/asuyarger/Applications/G16/g16/l701.exe)
 ... and contract with generalized density number  0.
 Compute integral second derivatives.
 Leave Link  701 at Fri Sep  6 09:57:49 2024, MaxMem=   104857600 cpu:               0.0 elap:               0.0
 (Enter /Users/asuyarger/Applications/G16/g16/l702.exe)
 L702 exits ... SP integral derivatives will be done elsewhere.
 Leave Link  702 at Fri Sep  6 09:57:49 2024, MaxMem=   104857600 cpu:               0.0 elap:               0.0
 (Enter /Users/asuyarger/Applications/G16/g16/l703.exe)
 Integral derivatives from FoFJK, PRISM(SPDF).
 Compute integral second derivatives, UseDBF=F ICtDFT=           0.
 Calling FoFJK, ICntrl=    100127 FMM=F ISym2X=1 I1Cent= 0 IOpClX= 0 NMat=1 NMatS=1 NMatT=0.
 FoFJK:  IHMeth=40 ICntrl=  100127 DoSepK=F KAlg= 0 I1Cent=           0 FoldK=F
 IRaf=         0 NMat=       1 IRICut=       1 DoRegI=T DoRafI=F ISym2E= 1 IDoP0=3 IntGTp=3.
 FoFCou: FMM=F IPFlag=           0 FMFlag=      100000 FMFlg1=         800
         NFxFlg=           0 DoJE=F BraDBF=F KetDBF=F FulRan=T
         wScrn=  0.000000 ICntrl=    100127 IOpCl=  0 I1Cent=           0 NGrid=           0
         NMat0=    1 NMatS0=      1 NMatT0=    0 NMatD0=    1 NMtDS0=    0 NMtDT0=    0
 Petite list used in FoFCou.
 Leave Link  703 at Fri Sep  6 09:57:49 2024, MaxMem=   104857600 cpu:               0.0 elap:               0.0
 (Enter /Users/asuyarger/Applications/G16/g16/l716.exe)
 Dipole        =-1.69480691D-16-2.83654779D-17-3.33066907D-15
 Polarizability= 1.07896414D-01 0.00000000D+00 2.44822219D-01
                -1.15686613D-15 1.34864179D-18 1.26471878D+01
 HyperPolar    = 3.74123991D-18-8.22259850D-19 2.93677949D-19
                -1.07360130D-19 2.89724593D-16 5.19583149D-33
                 1.23295015D-17 5.15335043D-17-9.03218103D-17
                -4.32166772D-15
 Full mass-weighted force constant matrix:
 Low frequencies ---  -19.5345  -19.5345    0.0000    0.0000    0.0000 1592.5318
 Diagonal vibrational polarizability:
        0.0000000       0.0000000       0.0000000
 Diagonal vibrational hyperpolarizability:
       -0.0000000       0.0000000      -0.0000000
 Harmonic frequencies (cm**-1), IR intensities (KM/Mole), Raman scattering
 activities (A**4/AMU), depolarization ratios for plane and unpolarized
 incident light, reduced masses (AMU), force constants (mDyne/A),
 and normal coordinates:
                      1
                     SGG
 Frequencies --   1592.5318
 Red. masses --     15.9949
 Frc consts  --     23.9006
 IR Inten    --      0.0000
 Raman Activ --     33.2537
 Depolar (P) --      0.3391
 Depolar (U) --      0.5065
  Atom  AN      X      Y      Z
     1   8    -0.00   0.00   0.71
     2   8     0.00   0.00  -0.71

 -------------------
 - Thermochemistry -
 -------------------
 Temperature   298.150 Kelvin.  Pressure   1.00000 Atm.
 Atom     1 has atomic number  8 and mass  15.99491
 Atom     2 has atomic number  8 and mass  15.99491
 Molecular mass:    31.98983 amu.
 Principal axes and moments of inertia in atomic units:
                           1         2         3
     Eigenvalues --    -0.00000  35.12614  35.12614
           X           -0.00000   1.00000  -0.00000
           Y            0.00000   0.00000   1.00000
           Z            1.00000   0.00000  -0.00000
 This molecule is a prolate symmetric top.
 Rotational symmetry number  2.
 Rotational temperature (Kelvin)      2.46580
 Rotational constant (GHZ):          51.378871
 Zero-point vibrational energy       9525.5 (Joules/Mol)
                                    2.27664 (Kcal/Mol)
 Vibrational temperatures:   2291.30
          (Kelvin)
 
 Zero-point correction=                           0.003628 (Hartree/Particle)
 Thermal correction to Energy=                    0.005992
 Thermal correction to Enthalpy=                  0.006936
 Thermal correction to Gibbs Free Energy=        -0.015142
 Sum of electronic and zero-point Energies=              0.070116
 Sum of electronic and thermal Energies=                 0.072480
 Sum of electronic and thermal Enthalpies=               0.073424
 Sum of electronic and thermal Free Energies=            0.051346
 
                     E (Thermal)             CV                S
                      KCal/Mol        Cal/Mol-Kelvin    Cal/Mol-Kelvin
 Total                    3.760              5.022             46.467
 Electronic               0.000              0.000              0.000
 Translational            0.889              2.981             36.321
 Rotational               0.592              1.987             10.139
 Vibrational              2.279              0.054              0.008
                       Q            Log10(Q)             Ln(Q)
 Total Bot       0.922213D+07          6.964831         16.037117
 Total V=0       0.430149D+09          8.633619         19.879642
 Vib (Bot)       0.214492D-01         -1.668588         -3.842066
 Vib (V=0)       0.100046D+01          0.000200          0.000460
 Electronic      0.100000D+01          0.000000          0.000000
 Translational   0.711167D+07          6.851972         15.777248
 Rotational      0.604571D+02          1.781447          4.101934
 ***** Axes restored to original set *****
 -------------------------------------------------------------------
 Center     Atomic                   Forces (Hartrees/Bohr)
 Number     Number              X              Y              Z
 -------------------------------------------------------------------
      1        8           0.000242039   -0.000000000    0.000000000
      2        8          -0.000242039    0.000000000   -0.000000000
 -------------------------------------------------------------------
 Cartesian Forces:  Max     0.000242039 RMS     0.000139741
 Force constants in Cartesian coordinates: 
                1             2             3             4             5 
      1  0.767573D+00
      2  0.000000D+00 -0.115491D-03
      3  0.000000D+00  0.000000D+00 -0.115491D-03
      4 -0.767573D+00  0.000000D+00  0.000000D+00  0.767573D+00
      5  0.000000D+00  0.115491D-03  0.000000D+00  0.000000D+00 -0.115491D-03
      6  0.000000D+00  0.000000D+00  0.115491D-03  0.000000D+00  0.000000D+00
                6 
      6 -0.115491D-03
 FormGI is forming the generalized inverse of G from B-inverse, IUseBI=4.
 Force constants in internal coordinates: 
                1 
      1  0.767573D+00
 Leave Link  716 at Fri Sep  6 09:57:49 2024, MaxMem=   104857600 cpu:               0.0 elap:               0.0
 (Enter /Users/asuyarger/Applications/G16/g16/l103.exe)

 GradGradGradGradGradGradGradGradGradGradGradGradGradGradGradGradGradGrad
 Berny optimization.
 Red2BG is reusing G-inverse.
 Internal  Forces:  Max     0.000242039 RMS     0.000242039
 Search for a local minimum.
 Step number   1 out of a maximum of    2
 All quantities printed in internal units (Hartrees-Bohrs-Radians)
 Second derivative matrix not updated -- analytic derivatives used.
 The second derivative matrix:
                          R1
           R1           0.76757
 ITU=  0
     Eigenvalues ---    0.76757
 Angle between quadratic step and forces=   0.00 degrees.
 Linear search not attempted -- first point.
 Iteration  1 RMS(Cart)=  0.00022297 RMS(Int)=  0.00000000
 Iteration  2 RMS(Cart)=  0.00000000 RMS(Int)=  0.00000000
 ITry= 1 IFail=0 DXMaxC= 1.58D-04 DCOld= 1.00D+10 DXMaxT= 3.00D-01 DXLimC= 3.00D+00 Rises=F
 ClnCor:  largest displacement from symmetrization is 6.94D-18 for atom     2.
 Variable       Old X    -DE/DX   Delta X   Delta X   Delta X     New X
                                 (Linear)    (Quad)   (Total)
    R1        2.09575   0.00024   0.00000   0.00032   0.00032   2.09606
         Item               Value     Threshold  Converged?
 Maximum Force            0.000242     0.000450     YES
 RMS     Force            0.000242     0.000300     YES
 Maximum Displacement     0.000158     0.001800     YES
 RMS     Displacement     0.000223     0.001200     YES
 Predicted change in Energy=-3.816117D-08
 Optimization completed.
    -- Stationary point found.
                           ----------------------------
                           !   Optimized Parameters   !
                           ! (Angstroms and Degrees)  !
 --------------------------                            --------------------------
 ! Name  Definition              Value          Derivative Info.                !
 --------------------------------------------------------------------------------
 ! R1    R(1,2)                  1.109          -DE/DX =    0.0002              !
 --------------------------------------------------------------------------------
 GradGradGradGradGradGradGradGradGradGradGradGradGradGradGradGradGradGrad

 Leave Link  103 at Fri Sep  6 09:57:49 2024, MaxMem=   104857600 cpu:               0.0 elap:               0.0
 (Enter /Users/asuyarger/Applications/G16/g16/l9999.exe)
 Dipole is zero, so no output in dipole orientation.

 ----------------------------------------------------------------------

 Electric dipole moment (input orientation):
 (Debye = 10**-18 statcoulomb cm , SI units = C m)
                  (au)            (Debye)         (10**-30 SI)
   Tot        0.000000D+00      0.000000D+00      0.000000D+00
   x          0.000000D+00      0.000000D+00      0.000000D+00
   y          0.000000D+00      0.000000D+00      0.000000D+00
   z          0.000000D+00      0.000000D+00      0.000000D+00

 Dipole polarizability, Alpha (input orientation).
 (esu units = cm**3 , SI units = C**2 m**2 J**-1)
 Alpha(0;0):
               (au)            (10**-24 esu)      (10**-40 SI)
   iso        0.433330D+01      0.642129D+00      0.714465D+00
   aniso      0.124714D+02      0.184807D+01      0.205625D+01
   xx         0.126472D+02      0.187412D+01      0.208524D+01
   yx         0.000000D+00      0.000000D+00      0.000000D+00
   yy         0.244822D+00      0.362789D-01      0.403657D-01
   zx         0.000000D+00      0.000000D+00      0.000000D+00
   zy         0.000000D+00      0.000000D+00      0.000000D+00
   zz         0.107896D+00      0.159886D-01      0.177897D-01

 ----------------------------------------------------------------------
 1\1\GINC-JEFFSMACSTUDIO\Freq\RPM6\ZDO\O2\ROOT\06-Sep-2024\0\\#P Geom=A
 llCheck Guess=TCheck SCRF=Check GenChk RPM6/ZDO Freq\\O2 PM6 Opt Freq\
 \0,1\O,1.5253023702,-0.69786534,-0.02031144\O,0.4162798698,-0.69786534
 ,-0.02031144\\Version=EM64M-G16RevA.03\HF=0.0664883\RMSD=6.980e-15\RMS
 F=1.397e-04\ZeroPoint=0.0036281\Thermal=0.0059919\Dipole=0.,0.,0.\Dipo
 leDeriv=0.,0.,0.,0.,0.,0.,0.,0.,0.,0.,0.,0.,0.,0.,0.,0.,0.,0.\Polar=12
 .6471878,0.,0.2448222,0.,0.,0.1078964\PolarDeriv=16.8297955,0.,0.13262
 68,0.,0.,-0.3036239,0.,5.9178684,0.,0.,0.,0.,0.,0.,0.,5.9832035,0.,0.,
 -16.8297955,0.,-0.1326268,0.,0.,0.3036239,0.,-5.9178684,0.,0.,0.,0.,0.
 ,0.,0.,-5.9832035,0.,0.\HyperPolar=0.,0.,0.,0.,0.,0.,0.,0.,0.,0.\PG=D*
 H [C*(O1.O1)]\NImag=0\\0.76757286,0.,-0.00011549,0.,0.,-0.00011549,-0.
 76757286,0.,0.,0.76757286,0.,0.00011549,0.,0.,-0.00011549,0.,0.,0.0001
 1549,0.,0.,-0.00011549\\-0.00024204,0.,0.,0.00024204,0.,0.\\\@


 NECESSARY EVIL: ONE WE LIKE TOO MUCH TO RELINQUISH.
 Job cpu time:       0 days  0 hours  0 minutes  0.6 seconds.
 Elapsed time:       0 days  0 hours  0 minutes  0.5 seconds.
 File lengths (MBytes):  RWF=      6 Int=      0 D2E=      0 Chk=      2 Scr=      1
 Normal termination of Gaussian 16 at Fri Sep  6 09:57:49 2024.
