 Entering Gaussian System, Link 0=g16
 Input=/Users/asuyarger/Downloads/O2_uHF_6311pp2d3p_Opt_Freq_Full_NBO.gjf
 Output=/Users/asuyarger/Downloads/O2_uHF_6311pp2d3p_Opt_Freq_Full_NBO.log
 Initial command:
 /Users/asuyarger/Applications/G16/g16/l1.exe "/Users/asuyarger/Applications/G16/scratch/Gau-88769.inp" -scrdir="/Users/asuyarger/Applications/G16/scratch/"
 Entering Link 1 = /Users/asuyarger/Applications/G16/g16/l1.exe PID=     88770.
  
 Copyright (c) 1988,1990,1992,1993,1995,1998,2003,2009,2016,
            Gaussian, Inc.  All Rights Reserved.
  
 This is part of the Gaussian(R) 16 program.  It is based on
 the Gaussian(R) 09 system (copyright 2009, Gaussian, Inc.),
 the Gaussian(R) 03 system (copyright 2003, Gaussian, Inc.),
 the Gaussian(R) 98 system (copyright 1998, Gaussian, Inc.),
 the Gaussian(R) 94 system (copyright 1995, Gaussian, Inc.),
 the Gaussian 92(TM) system (copyright 1992, Gaussian, Inc.),
 the Gaussian 90(TM) system (copyright 1990, Gaussian, Inc.),
 the Gaussian 88(TM) system (copyright 1988, Gaussian, Inc.),
 the Gaussian 86(TM) system (copyright 1986, Carnegie Mellon
 University), and the Gaussian 82(TM) system (copyright 1983,
 Carnegie Mellon University). Gaussian is a federally registered
 trademark of Gaussian, Inc.
  
 This software contains proprietary and confidential information,
 including trade secrets, belonging to Gaussian, Inc.
  
 This software is provided under written license and may be
 used, copied, transmitted, or stored only in accord with that
 written license.
  
 The following legend is applicable only to US Government
 contracts under FAR:
  
                    RESTRICTED RIGHTS LEGEND
  
 Use, reproduction and disclosure by the US Government is
 subject to restrictions as set forth in subparagraphs (a)
 and (c) of the Commercial Computer Software - Restricted
 Rights clause in FAR 52.227-19.
  
 Gaussian, Inc.
 340 Quinnipiac St., Bldg. 40, Wallingford CT 06492
  
  
 ---------------------------------------------------------------
 Warning -- This program may not be used in any manner that
 competes with the business of Gaussian, Inc. or will provide
 assistance to any competitor of Gaussian, Inc.  The licensee
 of this program is prohibited from giving any competitor of
 Gaussian, Inc. access to this program.  By using this program,
 the user acknowledges that Gaussian, Inc. is engaged in the
 business of creating and licensing software in the field of
 computational chemistry and represents and warrants to the
 licensee that it is not a competitor of Gaussian, Inc. and that
 it will not use this program in any manner prohibited above.
 ---------------------------------------------------------------
  

 Cite this work as:
 Gaussian 16, Revision A.03,
 M. J. Frisch, G. W. Trucks, H. B. Schlegel, G. E. Scuseria, 
 M. A. Robb, J. R. Cheeseman, G. Scalmani, V. Barone, 
 G. A. Petersson, H. Nakatsuji, X. Li, M. Caricato, A. V. Marenich, 
 J. Bloino, B. G. Janesko, R. Gomperts, B. Mennucci, H. P. Hratchian, 
 J. V. Ortiz, A. F. Izmaylov, J. L. Sonnenberg, D. Williams-Young, 
 F. Ding, F. Lipparini, F. Egidi, J. Goings, B. Peng, A. Petrone, 
 T. Henderson, D. Ranasinghe, V. G. Zakrzewski, J. Gao, N. Rega, 
 G. Zheng, W. Liang, M. Hada, M. Ehara, K. Toyota, R. Fukuda, 
 J. Hasegawa, M. Ishida, T. Nakajima, Y. Honda, O. Kitao, H. Nakai, 
 T. Vreven, K. Throssell, J. A. Montgomery, Jr., J. E. Peralta, 
 F. Ogliaro, M. J. Bearpark, J. J. Heyd, E. N. Brothers, K. N. Kudin, 
 V. N. Staroverov, T. A. Keith, R. Kobayashi, J. Normand, 
 K. Raghavachari, A. P. Rendell, J. C. Burant, S. S. Iyengar, 
 J. Tomasi, M. Cossi, J. M. Millam, M. Klene, C. Adamo, R. Cammi, 
 J. W. Ochterski, R. L. Martin, K. Morokuma, O. Farkas, 
 J. B. Foresman, and D. J. Fox, Gaussian, Inc., Wallingford CT, 2016.
 
 ******************************************
 Gaussian 16:  EM64M-G16RevA.03 25-Dec-2016
                 6-Sep-2024 
 ******************************************
 %chk=O2_uHF_6311pp2d3p_Opt_Freq_Full_NBO.chk
 ----------------------------------------------------------------------
 #p opt=tight freq=raman uhf/6-311++g(2d,3p) guess=save pop=(hirshfeld,
 full,nbo) geom=connectivity polar
 ----------------------------------------------------------------------
 1/7=10,18=20,19=15,38=1,57=2/1,3;
 2/9=110,12=2,17=6,18=5,40=1/2;
 3/5=4,6=6,7=1512,11=2,25=1,30=1,71=1,116=2/1,2,3;
 4//1;
 5/5=2,38=5,98=1/2;
 6/7=3,28=1,40=1,79=1/1,7;
 7//1,2,3,16;
 1/7=10,18=20,19=15/3(2);
 2/9=110/2;
 99//99;
 2/9=110/2;
 3/5=4,6=6,7=1512,11=2,25=1,30=1,71=1,116=2/1,2,3;
 4/5=5,16=3,69=1/1;
 5/5=2,38=5,98=1/2;
 7//1,2,3,16;
 1/7=10,18=20,19=15/3(-5);
 2/9=110/2;
 6/7=3,19=2,28=1,40=1,79=1/1,7;
 99/9=1/99;
 Leave Link    1 at Fri Sep  6 10:23:30 2024, MaxMem=           0 cpu:               0.0 elap:               0.0
 (Enter /Users/asuyarger/Applications/G16/g16/l101.exe)
 -------------------------------
 O2 uHF 6-311++g(2d,3p) Opt Freq
 -------------------------------
 Symbolic Z-matrix:
 Charge =  0 Multiplicity = 1
 O                    -0.53345   0.31646   0. 
 O                    -1.69505   0.31646   0. 
 
 ITRead=  0  0
 MicOpt= -1 -1
 NAtoms=      2 NQM=        2 NQMF=       0 NMMI=      0 NMMIF=      0
                NMic=       0 NMicF=      0.
                    Isotopes and Nuclear Properties:
 (Nuclear quadrupole moments (NQMom) in fm**2, nuclear magnetic moments (NMagM)
  in nuclear magnetons)

  Atom         1           2
 IAtWgt=          16          16
 AtmWgt=  15.9949146  15.9949146
 NucSpn=           0           0
 AtZEff=  -0.0000000  -0.0000000
 NQMom=    0.0000000   0.0000000
 NMagM=    0.0000000   0.0000000
 AtZNuc=   8.0000000   8.0000000
 Leave Link  101 at Fri Sep  6 10:23:30 2024, MaxMem=   104857600 cpu:               0.1 elap:               0.1
 (Enter /Users/asuyarger/Applications/G16/g16/l103.exe)

 GradGradGradGradGradGradGradGradGradGradGradGradGradGradGradGradGradGrad
 Berny optimization.
 Initialization pass.
                           ----------------------------
                           !    Initial Parameters    !
                           ! (Angstroms and Degrees)  !
 --------------------------                            --------------------------
 ! Name  Definition              Value          Derivative Info.                !
 --------------------------------------------------------------------------------
 ! R1    R(1,2)                  1.1616         estimate D2E/DX2                !
 --------------------------------------------------------------------------------
 Trust Radius=3.00D-01 FncErr=1.00D-07 GrdErr=1.00D-07 EigMax=2.50D+02 EigMin=1.00D-04
 Number of steps in this run=     20 maximum allowed number of steps=    100.
 GradGradGradGradGradGradGradGradGradGradGradGradGradGradGradGradGradGrad

 Leave Link  103 at Fri Sep  6 10:23:30 2024, MaxMem=   104857600 cpu:               0.0 elap:               0.0
 (Enter /Users/asuyarger/Applications/G16/g16/l202.exe)
                          Input orientation:                          
 ---------------------------------------------------------------------
 Center     Atomic      Atomic             Coordinates (Angstroms)
 Number     Number       Type             X           Y           Z
 ---------------------------------------------------------------------
      1          8           0       -0.533454    0.316456    0.000000
      2          8           0       -1.695054    0.316456    0.000000
 ---------------------------------------------------------------------
 Stoichiometry    O2
 Framework group  D*H[C*(O.O)]
 Deg. of freedom     1
 Full point group                 D*H     NOp   8
 Largest Abelian subgroup         D2H     NOp   8
 Largest concise Abelian subgroup C2      NOp   2
                         Standard orientation:                         
 ---------------------------------------------------------------------
 Center     Atomic      Atomic             Coordinates (Angstroms)
 Number     Number       Type             X           Y           Z
 ---------------------------------------------------------------------
      1          8           0        0.000000    0.000000    0.580800
      2          8           0        0.000000    0.000000   -0.580800
 ---------------------------------------------------------------------
 Rotational constants (GHZ):           0.0000000          46.8330090          46.8330090
 Leave Link  202 at Fri Sep  6 10:23:30 2024, MaxMem=   104857600 cpu:               0.0 elap:               0.0
 (Enter /Users/asuyarger/Applications/G16/g16/l301.exe)
 Standard basis: 6-311++G(2d,3p) (5D, 7F)
 Ernie: Thresh=  0.10000D-02 Tol=  0.10000D-05 Strict=F.
 There are    15 symmetry adapted cartesian basis functions of AG  symmetry.
 There are     2 symmetry adapted cartesian basis functions of B1G symmetry.
 There are     6 symmetry adapted cartesian basis functions of B2G symmetry.
 There are     6 symmetry adapted cartesian basis functions of B3G symmetry.
 There are     2 symmetry adapted cartesian basis functions of AU  symmetry.
 There are    15 symmetry adapted cartesian basis functions of B1U symmetry.
 There are     6 symmetry adapted cartesian basis functions of B2U symmetry.
 There are     6 symmetry adapted cartesian basis functions of B3U symmetry.
 There are    13 symmetry adapted basis functions of AG  symmetry.
 There are     2 symmetry adapted basis functions of B1G symmetry.
 There are     6 symmetry adapted basis functions of B2G symmetry.
 There are     6 symmetry adapted basis functions of B3G symmetry.
 There are     2 symmetry adapted basis functions of AU  symmetry.
 There are    13 symmetry adapted basis functions of B1U symmetry.
 There are     6 symmetry adapted basis functions of B2U symmetry.
 There are     6 symmetry adapted basis functions of B3U symmetry.
    54 basis functions,    84 primitive gaussians,    58 cartesian basis functions
     8 alpha electrons        8 beta electrons
       nuclear repulsion energy        29.1557691967 Hartrees.
 IExCor=    0 DFT=F Ex=HF Corr=None ExCW=0 ScaHFX=  1.000000
 ScaDFX=  1.000000  1.000000  1.000000  1.000000 ScalE2=  1.000000  1.000000
 IRadAn=      5 IRanWt=     -1 IRanGd=            0 ICorTp=0 IEmpDi=  4
 NAtoms=    2 NActive=    2 NUniq=    1 SFac= 4.00D+00 NAtFMM=   60 NAOKFM=F Big=F
 Integral buffers will be    131072 words long.
 Raffenetti 2 integral format.
 Two-electron integral symmetry is turned on.
 Leave Link  301 at Fri Sep  6 10:23:31 2024, MaxMem=   104857600 cpu:               0.0 elap:               0.0
 (Enter /Users/asuyarger/Applications/G16/g16/l302.exe)
 NPDir=0 NMtPBC=     1 NCelOv=     1 NCel=       1 NClECP=     1 NCelD=      1
         NCelK=      1 NCelE2=     1 NClLst=     1 CellRange=     0.0.
 One-electron integrals computed using PRISM.
 One-electron integral symmetry used in STVInt
 NBasis=    54 RedAO= T EigKep=  5.98D-04  NBF=    13     2     6     6     2    13     6     6
 NBsUse=    54 1.00D-06 EigRej= -1.00D+00 NBFU=    13     2     6     6     2    13     6     6
 Leave Link  302 at Fri Sep  6 10:23:31 2024, MaxMem=   104857600 cpu:               0.0 elap:               0.1
 (Enter /Users/asuyarger/Applications/G16/g16/l303.exe)
 DipDrv:  MaxL=1.
 Leave Link  303 at Fri Sep  6 10:23:31 2024, MaxMem=   104857600 cpu:               0.0 elap:               0.0
 (Enter /Users/asuyarger/Applications/G16/g16/l401.exe)
 ExpMin= 8.45D-02 ExpMax= 8.59D+03 ExpMxC= 1.30D+03 IAcc=3 IRadAn=         5 AccDes= 0.00D+00
 Harris functional with IExCor=  205 and IRadAn=       5 diagonalized for initial guess.
 HarFok:  IExCor=  205 AccDes= 0.00D+00 IRadAn=         5 IDoV= 1 UseB2=F ITyADJ=14
 ICtDFT=  3500011 ScaDFX=  1.000000  1.000000  1.000000  1.000000
 FoFCou: FMM=F IPFlag=           0 FMFlag=      100000 FMFlg1=           0
         NFxFlg=           0 DoJE=T BraDBF=F KetDBF=T FulRan=T
         wScrn=  0.000000 ICntrl=       500 IOpCl=  0 I1Cent=   200000004 NGrid=           0
         NMat0=    1 NMatS0=      1 NMatT0=    0 NMatD0=    1 NMtDS0=    0 NMtDT0=    0
 Petite list used in FoFCou.
 Harris En= -149.592547716171    
 JPrj=0 DoOrth=F DoCkMO=F.
 Initial guess orbital symmetries:
 Alpha Orbitals:
       Occupied  (SGG) (SGU) (SGG) (SGU) (SGG) (PIU) (PIU) (PIG)
       Virtual   (PIG) (SGG) (SGU) (PIU) (PIU) (SGG) (PIG) (PIG)
                 (SGU) (SGU) (SGU) (SGG) (PIU) (PIU) (PIG) (PIG)
                 (SGG) (DLTG) (DLTG) (PIU) (PIU) (SGU) (DLTU) (DLTU)
                 (PIG) (PIG) (SGG) (SGU) (PIU) (PIU) (SGG) (PIG)
                 (PIG) (SGU) (DLTG) (DLTG) (DLTU) (DLTU) (PIU)
                 (PIU) (SGG) (PIG) (PIG) (SGU) (SGG) (SGU)
 Beta  Orbitals:
       Occupied  (SGG) (SGU) (SGG) (SGU) (SGG) (PIU) (PIU) (PIG)
       Virtual   (PIG) (SGG) (SGU) (PIU) (PIU) (SGG) (PIG) (PIG)
                 (SGU) (SGU) (SGU) (SGG) (PIU) (PIU) (PIG) (PIG)
                 (SGG) (DLTG) (DLTG) (PIU) (PIU) (SGU) (DLTU) (DLTU)
                 (PIG) (PIG) (SGG) (SGU) (PIU) (PIU) (SGG) (PIG)
                 (PIG) (SGU) (DLTG) (DLTG) (DLTU) (DLTU) (PIU)
                 (PIU) (SGG) (PIG) (PIG) (SGU) (SGG) (SGU)
 Initial guess <Sx>= 0.0000 <Sy>= 0.0000 <Sz>= 0.0000 <S**2>= 0.0000 S= 0.0000
 Leave Link  401 at Fri Sep  6 10:23:31 2024, MaxMem=   104857600 cpu:               0.1 elap:               0.1
 (Enter /Users/asuyarger/Applications/G16/g16/l502.exe)
 Keep R1 and R2 ints in memory in symmetry-blocked form, NReq=1940879.
 FoFCou: FMM=F IPFlag=           0 FMFlag=           0 FMFlg1=           0
         NFxFlg=           0 DoJE=F BraDBF=F KetDBF=F FulRan=T
         wScrn=  0.000000 ICntrl=       600 IOpCl=  0 I1Cent=           0 NGrid=           0
         NMat0=    1 NMatS0=   1485 NMatT0=    0 NMatD0=    1 NMtDS0=    0 NMtDT0=    0
 Petite list used in FoFCou.
 UHF open shell SCF:
 Using DIIS extrapolation, IDIIS=  1040.
 NGot=   104857600 LenX=   104547190 LenY=   104543385
 Requested convergence on RMS density matrix=1.00D-08 within 128 cycles.
 Requested convergence on MAX density matrix=1.00D-06.
 Requested convergence on             energy=1.00D-06.
 No special actions if energy rises.

 Cycle   1  Pass 1  IDiag  1:
 E= -149.551680205322    
 DIIS: error= 9.00D-02 at cycle   1 NSaved=   1.
 NSaved= 1 IEnMin= 1 EnMin= -149.551680205322     IErMin= 1 ErrMin= 9.00D-02
 ErrMax= 9.00D-02  0.00D+00 EMaxC= 1.00D-01 BMatC= 6.94D-01 BMatP= 6.94D-01
 IDIUse=3 WtCom= 9.97D-02 WtEn= 9.00D-01
 Coeff-Com:  0.100D+01
 Coeff-En:   0.100D+01
 Coeff:      0.100D+01
 Gap=     0.492 Goal=   None    Shift=    0.000
 Gap=     0.492 Goal=   None    Shift=    0.000
 GapD=    0.492 DampG=2.000 DampE=0.500 DampFc=1.0000 IDamp=-1.
 RMSDP=1.92D-03 MaxDP=1.97D-02              OVMax= 4.31D-02

 Cycle   2  Pass 1  IDiag  1:
 E= -149.583261925609     Delta-E=       -0.031581720287 Rises=F Damp=F
 DIIS: error= 6.14D-03 at cycle   2 NSaved=   2.
 NSaved= 2 IEnMin= 2 EnMin= -149.583261925609     IErMin= 2 ErrMin= 6.14D-03
 ErrMax= 6.14D-03  0.00D+00 EMaxC= 1.00D-01 BMatC= 4.82D-03 BMatP= 6.94D-01
 IDIUse=3 WtCom= 9.39D-01 WtEn= 6.14D-02
 Coeff-Com: -0.350D-01 0.103D+01
 Coeff-En:   0.000D+00 0.100D+01
 Coeff:     -0.328D-01 0.103D+01
 Gap=     0.487 Goal=   None    Shift=    0.000
 Gap=     0.487 Goal=   None    Shift=    0.000
 RMSDP=4.99D-04 MaxDP=6.96D-03 DE=-3.16D-02 OVMax= 7.47D-03

 Cycle   3  Pass 1  IDiag  1:
 E= -149.584077594606     Delta-E=       -0.000815668996 Rises=F Damp=F
 DIIS: error= 2.17D-03 at cycle   3 NSaved=   3.
 NSaved= 3 IEnMin= 3 EnMin= -149.584077594606     IErMin= 3 ErrMin= 2.17D-03
 ErrMax= 2.17D-03  0.00D+00 EMaxC= 1.00D-01 BMatC= 1.74D-04 BMatP= 4.82D-03
 IDIUse=3 WtCom= 9.78D-01 WtEn= 2.17D-02
 Coeff-Com: -0.627D-02 0.209D-01 0.985D+00
 Coeff-En:   0.000D+00 0.000D+00 0.100D+01
 Coeff:     -0.614D-02 0.204D-01 0.986D+00
 Gap=     0.489 Goal=   None    Shift=    0.000
 Gap=     0.489 Goal=   None    Shift=    0.000
 RMSDP=1.35D-04 MaxDP=1.22D-03 DE=-8.16D-04 OVMax= 2.81D-03

 Cycle   4  Pass 1  IDiag  1:
 E= -149.584124537079     Delta-E=       -0.000046942473 Rises=F Damp=F
 DIIS: error= 5.00D-04 at cycle   4 NSaved=   4.
 NSaved= 4 IEnMin= 4 EnMin= -149.584124537079     IErMin= 4 ErrMin= 5.00D-04
 ErrMax= 5.00D-04  0.00D+00 EMaxC= 1.00D-01 BMatC= 9.97D-06 BMatP= 1.74D-04
 IDIUse=3 WtCom= 9.95D-01 WtEn= 5.00D-03
 Coeff-Com:  0.168D-02-0.320D-01-0.199D+00 0.123D+01
 Coeff-En:   0.000D+00 0.000D+00 0.000D+00 0.100D+01
 Coeff:      0.167D-02-0.319D-01-0.198D+00 0.123D+01
 Gap=     0.490 Goal=   None    Shift=    0.000
 Gap=     0.490 Goal=   None    Shift=    0.000
 RMSDP=5.14D-05 MaxDP=5.07D-04 DE=-4.69D-05 OVMax= 1.07D-03

 Cycle   5  Pass 1  IDiag  1:
 E= -149.584129310680     Delta-E=       -0.000004773601 Rises=F Damp=F
 DIIS: error= 7.23D-05 at cycle   5 NSaved=   5.
 NSaved= 5 IEnMin= 5 EnMin= -149.584129310680     IErMin= 5 ErrMin= 7.23D-05
 ErrMax= 7.23D-05  0.00D+00 EMaxC= 1.00D-01 BMatC= 2.43D-07 BMatP= 9.97D-06
 IDIUse=1 WtCom= 1.00D+00 WtEn= 0.00D+00
 Coeff-Com:  0.138D-03-0.282D-03-0.139D-01-0.285D-01 0.104D+01
 Coeff:      0.138D-03-0.282D-03-0.139D-01-0.285D-01 0.104D+01
 Gap=     0.490 Goal=   None    Shift=    0.000
 Gap=     0.490 Goal=   None    Shift=    0.000
 RMSDP=7.26D-06 MaxDP=5.86D-05 DE=-4.77D-06 OVMax= 1.88D-04

 Cycle   6  Pass 1  IDiag  1:
 E= -149.584129417556     Delta-E=       -0.000000106876 Rises=F Damp=F
 DIIS: error= 1.82D-05 at cycle   6 NSaved=   6.
 NSaved= 6 IEnMin= 6 EnMin= -149.584129417556     IErMin= 6 ErrMin= 1.82D-05
 ErrMax= 1.82D-05  0.00D+00 EMaxC= 1.00D-01 BMatC= 1.88D-08 BMatP= 2.43D-07
 IDIUse=1 WtCom= 1.00D+00 WtEn= 0.00D+00
 Coeff-Com: -0.124D-03 0.251D-02 0.159D-01-0.985D-01 0.292D-01 0.105D+01
 Coeff:     -0.124D-03 0.251D-02 0.159D-01-0.985D-01 0.292D-01 0.105D+01
 Gap=     0.490 Goal=   None    Shift=    0.000
 Gap=     0.490 Goal=   None    Shift=    0.000
 RMSDP=1.97D-06 MaxDP=2.15D-05 DE=-1.07D-07 OVMax= 4.62D-05

 Cycle   7  Pass 1  IDiag  1:
 E= -149.584129424743     Delta-E=       -0.000000007187 Rises=F Damp=F
 DIIS: error= 2.01D-06 at cycle   7 NSaved=   7.
 NSaved= 7 IEnMin= 7 EnMin= -149.584129424743     IErMin= 7 ErrMin= 2.01D-06
 ErrMax= 2.01D-06  0.00D+00 EMaxC= 1.00D-01 BMatC= 3.19D-10 BMatP= 1.88D-08
 IDIUse=1 WtCom= 1.00D+00 WtEn= 0.00D+00
 Coeff-Com:  0.152D-04-0.400D-03-0.195D-02 0.162D-01-0.439D-01-0.103D+00
 Coeff-Com:  0.113D+01
 Coeff:      0.152D-04-0.400D-03-0.195D-02 0.162D-01-0.439D-01-0.103D+00
 Coeff:      0.113D+01
 Gap=     0.490 Goal=   None    Shift=    0.000
 Gap=     0.490 Goal=   None    Shift=    0.000
 RMSDP=2.08D-07 MaxDP=2.32D-06 DE=-7.19D-09 OVMax= 3.78D-06

 Cycle   8  Pass 1  IDiag  1:
 E= -149.584129424840     Delta-E=       -0.000000000097 Rises=F Damp=F
 DIIS: error= 2.43D-07 at cycle   8 NSaved=   8.
 NSaved= 8 IEnMin= 8 EnMin= -149.584129424840     IErMin= 8 ErrMin= 2.43D-07
 ErrMax= 2.43D-07  0.00D+00 EMaxC= 1.00D-01 BMatC= 4.02D-12 BMatP= 3.19D-10
 IDIUse=1 WtCom= 1.00D+00 WtEn= 0.00D+00
 Coeff-Com: -0.230D-05 0.734D-04 0.356D-03-0.319D-02 0.117D-01 0.141D-01
 Coeff-Com: -0.314D+00 0.129D+01
 Coeff:     -0.230D-05 0.734D-04 0.356D-03-0.319D-02 0.117D-01 0.141D-01
 Coeff:     -0.314D+00 0.129D+01
 Gap=     0.490 Goal=   None    Shift=    0.000
 Gap=     0.490 Goal=   None    Shift=    0.000
 RMSDP=3.55D-08 MaxDP=3.28D-07 DE=-9.71D-11 OVMax= 7.86D-07

 Cycle   9  Pass 1  IDiag  1:
 E= -149.584129424842     Delta-E=       -0.000000000002 Rises=F Damp=F
 DIIS: error= 2.08D-08 at cycle   9 NSaved=   9.
 NSaved= 9 IEnMin= 9 EnMin= -149.584129424842     IErMin= 9 ErrMin= 2.08D-08
 ErrMax= 2.08D-08  0.00D+00 EMaxC= 1.00D-01 BMatC= 5.86D-14 BMatP= 4.02D-12
 IDIUse=1 WtCom= 1.00D+00 WtEn= 0.00D+00
 Coeff-Com:  0.352D-06-0.122D-04-0.455D-04 0.491D-03-0.221D-02-0.103D-02
 Coeff-Com:  0.533D-01-0.282D+00 0.123D+01
 Coeff:      0.352D-06-0.122D-04-0.455D-04 0.491D-03-0.221D-02-0.103D-02
 Coeff:      0.533D-01-0.282D+00 0.123D+01
 Gap=     0.490 Goal=   None    Shift=    0.000
 Gap=     0.490 Goal=   None    Shift=    0.000
 RMSDP=2.73D-09 MaxDP=2.34D-08 DE=-1.73D-12 OVMax= 7.27D-08

 SCF Done:  E(UHF) =  -149.584129425     A.U. after    9 cycles
            NFock=  9  Conv=0.27D-08     -V/T= 2.0002
 <Sx>= 0.0000 <Sy>= 0.0000 <Sz>= 0.0000 <S**2>=-0.0000 S=-0.0000
 <L.S>= 0.000000000000E+00
 KE= 1.495470550018D+02 PE=-4.131247850199D+02 EE= 8.483783139654D+01
 Annihilation of the first spin contaminant:
 S**2 before annihilation     0.0000,   after    -0.0000
 Leave Link  502 at Fri Sep  6 10:23:31 2024, MaxMem=   104857600 cpu:               0.2 elap:               0.2
 (Enter /Users/asuyarger/Applications/G16/g16/l601.exe)
 Copying SCF densities to generalized density rwf, IOpCl= 1 IROHF=0.

 **********************************************************************

            Population analysis using the SCF density.

 **********************************************************************

 Orbital symmetries:
 Alpha Orbitals:
       Occupied  (SGG) (SGU) (SGG) (SGU) (PIU) (SGG) (PIU) (?A)
       Virtual   (?A) (SGU) (SGG) (PIU) (PIU) (SGG) (?A) (?A) (SGU)
                 (SGU) (SGG) (SGU) (PIU) (PIU) (?A) (?A) (?B) (?B)
                 (?B) (PIU) (PIU) (?C) (?C) (?C) (PIG) (PIG) (SGG)
                 (SGU) (PIU) (PIU) (SGG) (PIG) (PIG) (SGU) (?D)
                 (?D) (DLTU) (DLTU) (PIU) (PIU) (?D) (PIG) (PIG)
                 (SGU) (SGG) (SGU)
 Beta  Orbitals:
       Occupied  (SGG) (SGU) (SGG) (SGU) (PIU) (SGG) (PIU) (?A)
       Virtual   (?A) (SGU) (SGG) (PIU) (PIU) (SGG) (?A) (?A) (SGU)
                 (SGU) (SGG) (SGU) (PIU) (PIU) (?A) (?A) (?B) (?B)
                 (?B) (PIU) (PIU) (?C) (?C) (?C) (PIG) (PIG) (SGG)
                 (SGU) (PIU) (PIU) (SGG) (PIG) (PIG) (SGU) (?D)
                 (?D) (DLTU) (DLTU) (PIU) (PIU) (?D) (PIG) (PIG)
                 (SGU) (SGG) (SGU)
 Unable to determine electronic state:  an orbital has unidentified symmetry.
 Alpha  occ. eigenvalues --  -20.73746 -20.73631  -1.70529  -1.09117  -0.79026
 Alpha  occ. eigenvalues --   -0.75798  -0.67884  -0.45373
 Alpha virt. eigenvalues --    0.03598   0.17438   0.18110   0.21587   0.22119
 Alpha virt. eigenvalues --    0.28494   0.28925   0.30126   0.42821   0.57430
 Alpha virt. eigenvalues --    1.13102   1.13922   1.16577   1.16635   1.24348
 Alpha virt. eigenvalues --    1.25895   1.38765   1.45893   1.46471   1.58973
 Alpha virt. eigenvalues --    1.59275   1.75176   1.92362   1.92464   2.56553
 Alpha virt. eigenvalues --    2.58739   2.60432   2.81470   5.25174   5.26393
 Alpha virt. eigenvalues --    5.37136   5.53328   5.55186   6.76577   7.06714
 Alpha virt. eigenvalues --    7.06873   7.19152   7.19170   7.22149   7.25883
 Alpha virt. eigenvalues --    7.26835   7.32329   7.35545   7.83731  51.35446
 Alpha virt. eigenvalues --   51.47130
  Beta  occ. eigenvalues --  -20.73746 -20.73631  -1.70529  -1.09117  -0.79026
  Beta  occ. eigenvalues --   -0.75798  -0.67884  -0.45373
  Beta virt. eigenvalues --    0.03598   0.17438   0.18110   0.21587   0.22119
  Beta virt. eigenvalues --    0.28494   0.28925   0.30126   0.42821   0.57430
  Beta virt. eigenvalues --    1.13102   1.13922   1.16577   1.16635   1.24348
  Beta virt. eigenvalues --    1.25895   1.38765   1.45893   1.46471   1.58973
  Beta virt. eigenvalues --    1.59275   1.75176   1.92362   1.92464   2.56553
  Beta virt. eigenvalues --    2.58739   2.60432   2.81470   5.25174   5.26393
  Beta virt. eigenvalues --    5.37136   5.53328   5.55186   6.76577   7.06714
  Beta virt. eigenvalues --    7.06873   7.19152   7.19170   7.22149   7.25883
  Beta virt. eigenvalues --    7.26835   7.32329   7.35545   7.83731  51.35446
  Beta virt. eigenvalues --   51.47130
     Alpha Molecular Orbital Coefficients:
                           1         2         3         4         5
                       (SGG)--O  (SGU)--O  (SGG)--O  (SGU)--O  (PIU)--O
     Eigenvalues --   -20.73746 -20.73631  -1.70529  -1.09117  -0.79026
   1 1   O  1S          0.38997   0.39003  -0.08358  -0.08708   0.00000
   2        2S          0.33351   0.33365  -0.13946  -0.14720   0.00000
   3        2PX         0.00000   0.00000   0.00000   0.00000   0.00000
   4        2PY         0.00000   0.00000   0.00000   0.00000   0.21145
   5        2PZ        -0.00150  -0.00146  -0.07362   0.07328   0.00000
   6        3S          0.00381   0.00358   0.40185   0.44356   0.00000
   7        3PX         0.00000   0.00000   0.00000   0.00000   0.00000
   8        3PY         0.00000   0.00000   0.00000   0.00000   0.32947
   9        3PZ         0.00028   0.00115  -0.12267   0.10223   0.00000
  10        4S         -0.00031  -0.00254   0.22065   0.45768   0.00000
  11        4PX         0.00000   0.00000   0.00000   0.00000   0.00000
  12        4PY         0.00000   0.00000   0.00000   0.00000   0.22426
  13        4PZ        -0.00019   0.00095  -0.03532   0.02332   0.00000
  14        5S          0.00016   0.00382  -0.01293  -0.19899   0.00000
  15        5PX         0.00000   0.00000   0.00000   0.00000   0.00000
  16        5PY         0.00000   0.00000   0.00000   0.00000   0.00477
  17        5PZ         0.00005  -0.00117   0.00983   0.06617   0.00000
  18        6D 0        0.00016   0.00002   0.01184  -0.00452   0.00000
  19        6D+1        0.00000   0.00000   0.00000   0.00000   0.00000
  20        6D-1        0.00000   0.00000   0.00000   0.00000  -0.00910
  21        6D+2       -0.00015  -0.00017  -0.00015  -0.00070   0.00000
  22        6D-2        0.00000   0.00000   0.00000   0.00000   0.00000
  23        7D 0       -0.00005  -0.00054   0.02209  -0.00425   0.00000
  24        7D+1        0.00000   0.00000   0.00000   0.00000   0.00000
  25        7D-1        0.00000   0.00000   0.00000   0.00000  -0.02591
  26        7D+2       -0.00010  -0.00019   0.00235  -0.00266   0.00000
  27        7D-2        0.00000   0.00000   0.00000   0.00000   0.00000
  28 2   O  1S          0.38997  -0.39003  -0.08358   0.08708   0.00000
  29        2S          0.33351  -0.33365  -0.13946   0.14720   0.00000
  30        2PX         0.00000   0.00000   0.00000   0.00000   0.00000
  31        2PY         0.00000   0.00000   0.00000   0.00000   0.21145
  32        2PZ         0.00150  -0.00146   0.07362   0.07328   0.00000
  33        3S          0.00381  -0.00358   0.40185  -0.44356   0.00000
  34        3PX         0.00000   0.00000   0.00000   0.00000   0.00000
  35        3PY         0.00000   0.00000   0.00000   0.00000   0.32947
  36        3PZ        -0.00028   0.00115   0.12267   0.10223   0.00000
  37        4S         -0.00031   0.00254   0.22065  -0.45768   0.00000
  38        4PX         0.00000   0.00000   0.00000   0.00000   0.00000
  39        4PY         0.00000   0.00000   0.00000   0.00000   0.22426
  40        4PZ         0.00019   0.00095   0.03532   0.02332   0.00000
  41        5S          0.00016  -0.00382  -0.01293   0.19899   0.00000
  42        5PX         0.00000   0.00000   0.00000   0.00000   0.00000
  43        5PY         0.00000   0.00000   0.00000   0.00000   0.00477
  44        5PZ        -0.00005  -0.00117  -0.00983   0.06617   0.00000
  45        6D 0        0.00016  -0.00002   0.01184   0.00452   0.00000
  46        6D+1        0.00000   0.00000   0.00000   0.00000   0.00000
  47        6D-1        0.00000   0.00000   0.00000   0.00000   0.00910
  48        6D+2       -0.00015   0.00017  -0.00015   0.00070   0.00000
  49        6D-2        0.00000   0.00000   0.00000   0.00000   0.00000
  50        7D 0       -0.00005   0.00054   0.02209   0.00425   0.00000
  51        7D+1        0.00000   0.00000   0.00000   0.00000   0.00000
  52        7D-1        0.00000   0.00000   0.00000   0.00000   0.02591
  53        7D+2       -0.00010   0.00019   0.00235   0.00266   0.00000
  54        7D-2        0.00000   0.00000   0.00000   0.00000   0.00000
                           6         7         8         9        10
                       (SGG)--O  (PIU)--O      O         V     (SGU)--V
     Eigenvalues --    -0.75798  -0.67884  -0.45373   0.03598   0.17438
   1 1   O  1S         -0.02893   0.00000   0.00000   0.00000  -0.02019
   2        2S         -0.04906   0.00000   0.00000   0.00000  -0.03554
   3        2PX         0.00000   0.19073   0.00000   0.20262   0.00000
   4        2PY         0.00000   0.00000   0.24221   0.00000   0.00000
   5        2PZ         0.20712   0.00000   0.00000   0.00000  -0.00875
   6        3S          0.14952   0.00000   0.00000   0.00000   0.14955
   7        3PX         0.00000   0.30829   0.00000   0.32214   0.00000
   8        3PY         0.00000   0.00000   0.37199   0.00000   0.00000
   9        3PZ         0.32635   0.00000   0.00000   0.00000  -0.00920
  10        4S          0.21706   0.00000   0.00000   0.00000  -0.37440
  11        4PX         0.00000   0.24680   0.00000   0.37857   0.00000
  12        4PY         0.00000   0.00000   0.37005   0.00000   0.00000
  13        4PZ         0.20125   0.00000   0.00000   0.00000   0.47473
  14        5S          0.03019   0.00000   0.00000   0.00000   8.03088
  15        5PX         0.00000   0.01284   0.00000   0.38702   0.00000
  16        5PY         0.00000   0.00000   0.06611   0.00000   0.00000
  17        5PZ        -0.00621   0.00000   0.00000   0.00000  -3.44252
  18        6D 0       -0.01307   0.00000   0.00000   0.00000   0.00116
  19        6D+1        0.00000  -0.01085   0.00000   0.00398   0.00000
  20        6D-1        0.00000   0.00000   0.00285   0.00000   0.00000
  21        6D+2       -0.00046   0.00000   0.00000   0.00000   0.00021
  22        6D-2        0.00000   0.00000   0.00000   0.00000   0.00000
  23        7D 0       -0.02677   0.00000   0.00000   0.00000  -0.07368
  24        7D+1        0.00000  -0.04447   0.00000   0.01165   0.00000
  25        7D-1        0.00000   0.00000   0.00881   0.00000   0.00000
  26        7D+2       -0.00118   0.00000   0.00000   0.00000  -0.00032
  27        7D-2        0.00000   0.00000   0.00000   0.00000   0.00000
  28 2   O  1S         -0.02893   0.00000   0.00000   0.00000   0.02019
  29        2S         -0.04906   0.00000   0.00000   0.00000   0.03554
  30        2PX         0.00000   0.19073   0.00000  -0.20262   0.00000
  31        2PY         0.00000   0.00000  -0.24221   0.00000   0.00000
  32        2PZ        -0.20712   0.00000   0.00000   0.00000  -0.00875
  33        3S          0.14952   0.00000   0.00000   0.00000  -0.14955
  34        3PX         0.00000   0.30829   0.00000  -0.32214   0.00000
  35        3PY         0.00000   0.00000  -0.37199   0.00000   0.00000
  36        3PZ        -0.32635   0.00000   0.00000   0.00000  -0.00920
  37        4S          0.21706   0.00000   0.00000   0.00000   0.37440
  38        4PX         0.00000   0.24680   0.00000  -0.37857   0.00000
  39        4PY         0.00000   0.00000  -0.37005   0.00000   0.00000
  40        4PZ        -0.20125   0.00000   0.00000   0.00000   0.47473
  41        5S          0.03019   0.00000   0.00000   0.00000  -8.03088
  42        5PX         0.00000   0.01284   0.00000  -0.38702   0.00000
  43        5PY         0.00000   0.00000  -0.06611   0.00000   0.00000
  44        5PZ         0.00621   0.00000   0.00000   0.00000  -3.44252
  45        6D 0       -0.01307   0.00000   0.00000   0.00000  -0.00116
  46        6D+1        0.00000   0.01085   0.00000   0.00398   0.00000
  47        6D-1        0.00000   0.00000   0.00285   0.00000   0.00000
  48        6D+2       -0.00046   0.00000   0.00000   0.00000  -0.00021
  49        6D-2        0.00000   0.00000   0.00000   0.00000   0.00000
  50        7D 0       -0.02677   0.00000   0.00000   0.00000   0.07368
  51        7D+1        0.00000   0.04447   0.00000   0.01165   0.00000
  52        7D-1        0.00000   0.00000   0.00881   0.00000   0.00000
  53        7D+2       -0.00118   0.00000   0.00000   0.00000   0.00032
  54        7D-2        0.00000   0.00000   0.00000   0.00000   0.00000
                          11        12        13        14        15
                       (SGG)--V  (PIU)--V  (PIU)--V  (SGG)--V      V
     Eigenvalues --     0.18110   0.21587   0.22119   0.28494   0.28925
   1 1   O  1S          0.02099   0.00000   0.00000  -0.01104   0.00000
   2        2S          0.03457   0.00000   0.00000  -0.01710   0.00000
   3        2PX         0.00000  -0.06833   0.00000   0.00000   0.00000
   4        2PY         0.00000   0.00000  -0.06675   0.00000  -0.06857
   5        2PZ        -0.04763   0.00000   0.00000  -0.02149   0.00000
   6        3S         -0.07920   0.00000   0.00000   0.01239   0.00000
   7        3PX         0.00000  -0.05483   0.00000   0.00000   0.00000
   8        3PY         0.00000   0.00000  -0.04786   0.00000  -0.05207
   9        3PZ        -0.03087   0.00000   0.00000   0.00353   0.00000
  10        4S         -0.62140   0.00000   0.00000   0.50498   0.00000
  11        4PX         0.00000  -0.34266   0.00000   0.00000   0.00000
  12        4PY         0.00000   0.00000  -0.32859   0.00000  -0.43987
  13        4PZ        -0.23549   0.00000   0.00000  -0.15665   0.00000
  14        5S          0.94451   0.00000   0.00000  -0.17854   0.00000
  15        5PX         0.00000   0.69249   0.00000   0.00000   0.00000
  16        5PY         0.00000   0.00000   0.68996   0.00000   1.96108
  17        5PZ         0.53177   0.00000   0.00000   1.32526   0.00000
  18        6D 0       -0.00243   0.00000   0.00000   0.00790   0.00000
  19        6D+1        0.00000   0.00473   0.00000   0.00000   0.00000
  20        6D-1        0.00000   0.00000   0.00406   0.00000  -0.00069
  21        6D+2       -0.00047   0.00000   0.00000   0.00055   0.00000
  22        6D-2        0.00000   0.00000   0.00000   0.00000   0.00000
  23        7D 0        0.01088   0.00000   0.00000   0.01788   0.00000
  24        7D+1        0.00000   0.01158   0.00000   0.00000   0.00000
  25        7D-1        0.00000   0.00000   0.00664   0.00000   0.02346
  26        7D+2        0.00224   0.00000   0.00000  -0.00353   0.00000
  27        7D-2        0.00000   0.00000   0.00000   0.00000   0.00000
  28 2   O  1S          0.02099   0.00000   0.00000  -0.01104   0.00000
  29        2S          0.03457   0.00000   0.00000  -0.01710   0.00000
  30        2PX         0.00000  -0.06833   0.00000   0.00000   0.00000
  31        2PY         0.00000   0.00000  -0.06675   0.00000   0.06857
  32        2PZ         0.04763   0.00000   0.00000   0.02149   0.00000
  33        3S         -0.07920   0.00000   0.00000   0.01239   0.00000
  34        3PX         0.00000  -0.05483   0.00000   0.00000   0.00000
  35        3PY         0.00000   0.00000  -0.04786   0.00000   0.05207
  36        3PZ         0.03087   0.00000   0.00000  -0.00353   0.00000
  37        4S         -0.62140   0.00000   0.00000   0.50498   0.00000
  38        4PX         0.00000  -0.34266   0.00000   0.00000   0.00000
  39        4PY         0.00000   0.00000  -0.32859   0.00000   0.43987
  40        4PZ         0.23549   0.00000   0.00000   0.15665   0.00000
  41        5S          0.94451   0.00000   0.00000  -0.17854   0.00000
  42        5PX         0.00000   0.69249   0.00000   0.00000   0.00000
  43        5PY         0.00000   0.00000   0.68996   0.00000  -1.96108
  44        5PZ        -0.53177   0.00000   0.00000  -1.32526   0.00000
  45        6D 0       -0.00243   0.00000   0.00000   0.00790   0.00000
  46        6D+1        0.00000  -0.00473   0.00000   0.00000   0.00000
  47        6D-1        0.00000   0.00000  -0.00406   0.00000  -0.00069
  48        6D+2       -0.00047   0.00000   0.00000   0.00055   0.00000
  49        6D-2        0.00000   0.00000   0.00000   0.00000   0.00000
  50        7D 0        0.01088   0.00000   0.00000   0.01788   0.00000
  51        7D+1        0.00000  -0.01158   0.00000   0.00000   0.00000
  52        7D-1        0.00000   0.00000  -0.00664   0.00000   0.02346
  53        7D+2        0.00224   0.00000   0.00000  -0.00353   0.00000
  54        7D-2        0.00000   0.00000   0.00000   0.00000   0.00000
                          16        17        18        19        20
                           V     (SGU)--V  (SGU)--V  (SGG)--V  (SGU)--V
     Eigenvalues --     0.30126   0.42821   0.57430   1.13102   1.13922
   1 1   O  1S          0.00000   0.01725   0.04610   0.00523   0.00118
   2        2S          0.00000   0.02679   0.08078   0.00504   0.00305
   3        2PX        -0.10567   0.00000   0.00000   0.00000   0.00000
   4        2PY         0.00000   0.00000   0.00000   0.00000   0.00000
   5        2PZ         0.00000  -0.02465   0.21010  -0.10626   0.23362
   6        3S          0.00000  -0.00413  -0.20729   0.08854  -0.15940
   7        3PX        -0.11114   0.00000   0.00000   0.00000   0.00000
   8        3PY         0.00000   0.00000   0.00000   0.00000   0.00000
   9        3PZ         0.00000   0.01918   0.35164  -0.53628   0.40590
  10        4S          0.00000  -1.17588  -2.12033   0.13334   3.70014
  11        4PX        -0.55225   0.00000   0.00000   0.00000   0.00000
  12        4PY         0.00000   0.00000   0.00000   0.00000   0.00000
  13        4PZ         0.00000  -0.10723   1.83717   1.20179  -3.39632
  14        5S          0.00000  22.39975   2.35398  -0.17225  -0.40799
  15        5PX         1.94032   0.00000   0.00000   0.00000   0.00000
  16        5PY         0.00000   0.00000   0.00000   0.00000   0.00000
  17        5PZ         0.00000  -7.16525  -1.13870  -0.82922   0.65115
  18        6D 0        0.00000  -0.00063   0.02189   0.02871  -0.02031
  19        6D+1       -0.00195   0.00000   0.00000   0.00000   0.00000
  20        6D-1        0.00000   0.00000   0.00000   0.00000   0.00000
  21        6D+2        0.00000  -0.00056  -0.00004   0.00015   0.00023
  22        6D-2        0.00000   0.00000   0.00000   0.00000   0.00000
  23        7D 0        0.00000  -0.02812  -0.05188   0.09598   0.43542
  24        7D+1        0.02119   0.00000   0.00000   0.00000   0.00000
  25        7D-1        0.00000   0.00000   0.00000   0.00000   0.00000
  26        7D+2        0.00000   0.00042   0.00145  -0.01863  -0.00026
  27        7D-2        0.00000   0.00000   0.00000   0.00000   0.00000
  28 2   O  1S          0.00000  -0.01725  -0.04610   0.00523  -0.00118
  29        2S          0.00000  -0.02679  -0.08078   0.00504  -0.00305
  30        2PX         0.10567   0.00000   0.00000   0.00000   0.00000
  31        2PY         0.00000   0.00000   0.00000   0.00000   0.00000
  32        2PZ         0.00000  -0.02465   0.21010   0.10626   0.23362
  33        3S          0.00000   0.00413   0.20729   0.08854   0.15940
  34        3PX         0.11114   0.00000   0.00000   0.00000   0.00000
  35        3PY         0.00000   0.00000   0.00000   0.00000   0.00000
  36        3PZ         0.00000   0.01918   0.35164   0.53628   0.40590
  37        4S          0.00000   1.17588   2.12033   0.13334  -3.70014
  38        4PX         0.55225   0.00000   0.00000   0.00000   0.00000
  39        4PY         0.00000   0.00000   0.00000   0.00000   0.00000
  40        4PZ         0.00000  -0.10723   1.83717  -1.20179  -3.39632
  41        5S          0.00000 -22.39975  -2.35398  -0.17225   0.40799
  42        5PX        -1.94032   0.00000   0.00000   0.00000   0.00000
  43        5PY         0.00000   0.00000   0.00000   0.00000   0.00000
  44        5PZ         0.00000  -7.16525  -1.13870   0.82922   0.65115
  45        6D 0        0.00000   0.00063  -0.02189   0.02871   0.02031
  46        6D+1       -0.00195   0.00000   0.00000   0.00000   0.00000
  47        6D-1        0.00000   0.00000   0.00000   0.00000   0.00000
  48        6D+2        0.00000   0.00056   0.00004   0.00015  -0.00023
  49        6D-2        0.00000   0.00000   0.00000   0.00000   0.00000
  50        7D 0        0.00000   0.02812   0.05188   0.09598  -0.43542
  51        7D+1        0.02119   0.00000   0.00000   0.00000   0.00000
  52        7D-1        0.00000   0.00000   0.00000   0.00000   0.00000
  53        7D+2        0.00000  -0.00042  -0.00145  -0.01863   0.00026
  54        7D-2        0.00000   0.00000   0.00000   0.00000   0.00000
                          21        22        23        24        25
                       (PIU)--V  (PIU)--V      V         V         V
     Eigenvalues --     1.16577   1.16635   1.24348   1.25895   1.38765
   1 1   O  1S          0.00000   0.00000   0.00000   0.00000   0.07283
   2        2S          0.00000   0.00000   0.00000   0.00000   0.15249
   3        2PX         0.00000  -0.15986   0.00000  -0.17552   0.00000
   4        2PY        -0.16183   0.00000  -0.16329   0.00000   0.00000
   5        2PZ         0.00000   0.00000   0.00000   0.00000  -0.04347
   6        3S          0.00000   0.00000   0.00000   0.00000  -1.10467
   7        3PX         0.00000  -0.61289   0.00000  -0.62209   0.00000
   8        3PY        -0.60134   0.00000  -0.58696   0.00000   0.00000
   9        3PZ         0.00000   0.00000   0.00000   0.00000  -0.13247
  10        4S          0.00000   0.00000   0.00000   0.00000   1.58186
  11        4PX         0.00000   1.01124   0.00000   1.58347   0.00000
  12        4PY         1.01953   0.00000   1.61426   0.00000   0.00000
  13        4PZ         0.00000   0.00000   0.00000   0.00000   0.19284
  14        5S          0.00000   0.00000   0.00000   0.00000  -0.62847
  15        5PX         0.00000  -0.43275   0.00000  -1.04489   0.00000
  16        5PY        -0.43599   0.00000  -1.07375   0.00000   0.00000
  17        5PZ         0.00000   0.00000   0.00000   0.00000   0.18121
  18        6D 0        0.00000   0.00000   0.00000   0.00000  -0.00604
  19        6D+1        0.00000   0.00745   0.00000   0.01451   0.00000
  20        6D-1        0.00551   0.00000   0.01534   0.00000   0.00000
  21        6D+2        0.00000   0.00000   0.00000   0.00000  -0.00222
  22        6D-2        0.00000   0.00000   0.00000   0.00000   0.00000
  23        7D 0        0.00000   0.00000   0.00000   0.00000  -0.21296
  24        7D+1        0.00000   0.12127   0.00000  -0.05409   0.00000
  25        7D-1        0.09435   0.00000  -0.04808   0.00000   0.00000
  26        7D+2        0.00000   0.00000   0.00000   0.00000   0.17136
  27        7D-2        0.00000   0.00000   0.00000   0.00000   0.00000
  28 2   O  1S          0.00000   0.00000   0.00000   0.00000   0.07283
  29        2S          0.00000   0.00000   0.00000   0.00000   0.15249
  30        2PX         0.00000  -0.15986   0.00000   0.17552   0.00000
  31        2PY        -0.16183   0.00000   0.16329   0.00000   0.00000
  32        2PZ         0.00000   0.00000   0.00000   0.00000   0.04347
  33        3S          0.00000   0.00000   0.00000   0.00000  -1.10467
  34        3PX         0.00000  -0.61289   0.00000   0.62209   0.00000
  35        3PY        -0.60134   0.00000   0.58696   0.00000   0.00000
  36        3PZ         0.00000   0.00000   0.00000   0.00000   0.13247
  37        4S          0.00000   0.00000   0.00000   0.00000   1.58186
  38        4PX         0.00000   1.01124   0.00000  -1.58347   0.00000
  39        4PY         1.01953   0.00000  -1.61426   0.00000   0.00000
  40        4PZ         0.00000   0.00000   0.00000   0.00000  -0.19284
  41        5S          0.00000   0.00000   0.00000   0.00000  -0.62847
  42        5PX         0.00000  -0.43275   0.00000   1.04489   0.00000
  43        5PY        -0.43599   0.00000   1.07375   0.00000   0.00000
  44        5PZ         0.00000   0.00000   0.00000   0.00000  -0.18121
  45        6D 0        0.00000   0.00000   0.00000   0.00000  -0.00604
  46        6D+1        0.00000  -0.00745   0.00000   0.01451   0.00000
  47        6D-1       -0.00551   0.00000   0.01534   0.00000   0.00000
  48        6D+2        0.00000   0.00000   0.00000   0.00000  -0.00222
  49        6D-2        0.00000   0.00000   0.00000   0.00000   0.00000
  50        7D 0        0.00000   0.00000   0.00000   0.00000  -0.21296
  51        7D+1        0.00000  -0.12127   0.00000  -0.05409   0.00000
  52        7D-1       -0.09435   0.00000  -0.04808   0.00000   0.00000
  53        7D+2        0.00000   0.00000   0.00000   0.00000   0.17136
  54        7D-2        0.00000   0.00000   0.00000   0.00000   0.00000
                          26        27        28        29        30
                           V         V     (PIU)--V  (PIU)--V      V
     Eigenvalues --     1.45893   1.46471   1.58973   1.59275   1.75176
   1 1   O  1S          0.00000  -0.01949   0.00000   0.00000  -0.07964
   2        2S          0.00000  -0.04133   0.00000   0.00000  -0.17106
   3        2PX         0.00000   0.00000   0.08421   0.00000   0.00000
   4        2PY         0.00000   0.00000   0.00000   0.07191   0.00000
   5        2PZ         0.00000   0.01019   0.00000   0.00000  -0.02203
   6        3S          0.00000   0.30339   0.00000   0.00000   1.51574
   7        3PX         0.00000   0.00000   0.21023   0.00000   0.00000
   8        3PY         0.00000   0.00000   0.00000   0.16546   0.00000
   9        3PZ         0.00000   0.02255   0.00000   0.00000   0.21698
  10        4S          0.00000  -0.42570   0.00000   0.00000  -5.47172
  11        4PX         0.00000   0.00000  -0.02793   0.00000   0.00000
  12        4PY         0.00000   0.00000   0.00000   0.00678   0.00000
  13        4PZ         0.00000  -0.01822   0.00000   0.00000   2.07498
  14        5S          0.00000   0.16373   0.00000   0.00000  10.93570
  15        5PX         0.00000   0.00000  -0.00971   0.00000   0.00000
  16        5PY         0.00000   0.00000   0.00000  -0.02420   0.00000
  17        5PZ         0.00000  -0.06894   0.00000   0.00000  -3.42257
  18        6D 0        0.00000   0.00309   0.00000   0.00000   0.01441
  19        6D+1        0.00000   0.00000   0.01760   0.00000   0.00000
  20        6D-1        0.00000   0.00000   0.00000   0.02014   0.00000
  21        6D+2        0.00000   0.00169   0.00000   0.00000   0.00295
  22        6D-2        0.00103   0.00000   0.00000   0.00000   0.00000
  23        7D 0        0.00000   0.06335   0.00000   0.00000  -0.20368
  24        7D+1        0.00000   0.00000   0.58728   0.00000   0.00000
  25        7D-1        0.00000   0.00000   0.00000   0.59253   0.00000
  26        7D+2        0.00000   0.61857   0.00000   0.00000  -0.06279
  27        7D-2        0.64216   0.00000   0.00000   0.00000   0.00000
  28 2   O  1S          0.00000  -0.01949   0.00000   0.00000   0.07964
  29        2S          0.00000  -0.04133   0.00000   0.00000   0.17106
  30        2PX         0.00000   0.00000   0.08421   0.00000   0.00000
  31        2PY         0.00000   0.00000   0.00000   0.07191   0.00000
  32        2PZ         0.00000  -0.01019   0.00000   0.00000  -0.02203
  33        3S          0.00000   0.30339   0.00000   0.00000  -1.51574
  34        3PX         0.00000   0.00000   0.21023   0.00000   0.00000
  35        3PY         0.00000   0.00000   0.00000   0.16546   0.00000
  36        3PZ         0.00000  -0.02255   0.00000   0.00000   0.21698
  37        4S          0.00000  -0.42570   0.00000   0.00000   5.47172
  38        4PX         0.00000   0.00000  -0.02793   0.00000   0.00000
  39        4PY         0.00000   0.00000   0.00000   0.00678   0.00000
  40        4PZ         0.00000   0.01822   0.00000   0.00000   2.07498
  41        5S          0.00000   0.16373   0.00000   0.00000 -10.93570
  42        5PX         0.00000   0.00000  -0.00971   0.00000   0.00000
  43        5PY         0.00000   0.00000   0.00000  -0.02420   0.00000
  44        5PZ         0.00000   0.06894   0.00000   0.00000  -3.42257
  45        6D 0        0.00000   0.00309   0.00000   0.00000  -0.01441
  46        6D+1        0.00000   0.00000  -0.01760   0.00000   0.00000
  47        6D-1        0.00000   0.00000   0.00000  -0.02014   0.00000
  48        6D+2        0.00000   0.00169   0.00000   0.00000  -0.00295
  49        6D-2        0.00103   0.00000   0.00000   0.00000   0.00000
  50        7D 0        0.00000   0.06335   0.00000   0.00000   0.20368
  51        7D+1        0.00000   0.00000  -0.58728   0.00000   0.00000
  52        7D-1        0.00000   0.00000   0.00000  -0.59253   0.00000
  53        7D+2        0.00000   0.61857   0.00000   0.00000   0.06279
  54        7D-2        0.64216   0.00000   0.00000   0.00000   0.00000
                          31        32        33        34        35
                           V         V     (PIG)--V  (PIG)--V  (SGG)--V
     Eigenvalues --     1.92362   1.92464   2.56553   2.58739   2.60432
   1 1   O  1S          0.00000  -0.00627   0.00000   0.00000  -0.04217
   2        2S          0.00000  -0.01363   0.00000   0.00000  -0.10091
   3        2PX         0.00000   0.00000  -0.04304   0.00000   0.00000
   4        2PY         0.00000   0.00000   0.00000  -0.04288   0.00000
   5        2PZ         0.00000  -0.00145   0.00000   0.00000  -0.02333
   6        3S          0.00000   0.12060   0.00000   0.00000   0.99150
   7        3PX         0.00000   0.00000  -0.03680   0.00000   0.00000
   8        3PY         0.00000   0.00000   0.00000  -0.03009   0.00000
   9        3PZ         0.00000   0.02390   0.00000   0.00000  -0.58194
  10        4S          0.00000  -0.46373   0.00000   0.00000  -0.45451
  11        4PX         0.00000   0.00000  -0.91963   0.00000   0.00000
  12        4PY         0.00000   0.00000   0.00000  -0.92719   0.00000
  13        4PZ         0.00000   0.18426   0.00000   0.00000   0.81927
  14        5S          0.00000   0.86535   0.00000   0.00000   0.01246
  15        5PX         0.00000   0.00000   0.27714   0.00000   0.00000
  16        5PY         0.00000   0.00000   0.00000   0.28095   0.00000
  17        5PZ         0.00000  -0.27208   0.00000   0.00000  -0.25589
  18        6D 0        0.00000   0.00204   0.00000   0.00000  -0.00914
  19        6D+1        0.00000   0.00000  -0.00687   0.00000   0.00000
  20        6D-1        0.00000   0.00000   0.00000  -0.00507   0.00000
  21        6D+2        0.00000   0.00358   0.00000   0.00000   0.00112
  22        6D-2        0.00334   0.00000   0.00000   0.00000   0.00000
  23        7D 0        0.00000  -0.02836   0.00000   0.00000  -0.88969
  24        7D+1        0.00000   0.00000   1.24943   0.00000   0.00000
  25        7D-1        0.00000   0.00000   0.00000   1.24794   0.00000
  26        7D+2        0.00000   0.79172   0.00000   0.00000   0.00124
  27        7D-2        0.79422   0.00000   0.00000   0.00000   0.00000
  28 2   O  1S          0.00000   0.00627   0.00000   0.00000  -0.04217
  29        2S          0.00000   0.01363   0.00000   0.00000  -0.10091
  30        2PX         0.00000   0.00000   0.04304   0.00000   0.00000
  31        2PY         0.00000   0.00000   0.00000   0.04288   0.00000
  32        2PZ         0.00000  -0.00145   0.00000   0.00000   0.02333
  33        3S          0.00000  -0.12060   0.00000   0.00000   0.99150
  34        3PX         0.00000   0.00000   0.03680   0.00000   0.00000
  35        3PY         0.00000   0.00000   0.00000   0.03009   0.00000
  36        3PZ         0.00000   0.02390   0.00000   0.00000   0.58194
  37        4S          0.00000   0.46373   0.00000   0.00000  -0.45451
  38        4PX         0.00000   0.00000   0.91963   0.00000   0.00000
  39        4PY         0.00000   0.00000   0.00000   0.92719   0.00000
  40        4PZ         0.00000   0.18426   0.00000   0.00000  -0.81927
  41        5S          0.00000  -0.86535   0.00000   0.00000   0.01246
  42        5PX         0.00000   0.00000  -0.27714   0.00000   0.00000
  43        5PY         0.00000   0.00000   0.00000  -0.28095   0.00000
  44        5PZ         0.00000  -0.27208   0.00000   0.00000   0.25589
  45        6D 0        0.00000  -0.00204   0.00000   0.00000  -0.00914
  46        6D+1        0.00000   0.00000  -0.00687   0.00000   0.00000
  47        6D-1        0.00000   0.00000   0.00000  -0.00507   0.00000
  48        6D+2        0.00000  -0.00358   0.00000   0.00000   0.00112
  49        6D-2       -0.00334   0.00000   0.00000   0.00000   0.00000
  50        7D 0        0.00000   0.02836   0.00000   0.00000  -0.88969
  51        7D+1        0.00000   0.00000   1.24943   0.00000   0.00000
  52        7D-1        0.00000   0.00000   0.00000   1.24794   0.00000
  53        7D+2        0.00000  -0.79172   0.00000   0.00000   0.00124
  54        7D-2       -0.79422   0.00000   0.00000   0.00000   0.00000
                          36        37        38        39        40
                       (SGU)--V  (PIU)--V  (PIU)--V  (SGG)--V  (PIG)--V
     Eigenvalues --     2.81470   5.25174   5.26393   5.37136   5.53328
   1 1   O  1S         -0.01417   0.00000   0.00000  -0.00799   0.00000
   2        2S         -0.02718   0.00000   0.00000  -0.00912   0.00000
   3        2PX         0.00000  -0.90399   0.00000   0.00000  -0.91650
   4        2PY         0.00000   0.00000  -0.90018   0.00000   0.00000
   5        2PZ        -0.19553   0.00000   0.00000  -0.89821   0.00000
   6        3S         -0.23035   0.00000   0.00000  -0.04629   0.00000
   7        3PX         0.00000   1.03329   0.00000   0.00000   1.11730
   8        3PY         0.00000   0.00000   1.04198   0.00000   0.00000
   9        3PZ        -0.77868   0.00000   0.00000   0.97505   0.00000
  10        4S          6.41613   0.00000   0.00000  -0.10440   0.00000
  11        4PX         0.00000  -0.50786   0.00000   0.00000  -0.64780
  12        4PY         0.00000   0.00000  -0.51175   0.00000   0.00000
  13        4PZ        -3.81253   0.00000   0.00000  -0.62752   0.00000
  14        5S         -3.64367   0.00000   0.00000   0.09983   0.00000
  15        5PX         0.00000   0.16635   0.00000   0.00000   0.37042
  16        5PY         0.00000   0.00000   0.16732   0.00000   0.00000
  17        5PZ         1.40753   0.00000   0.00000   0.26272   0.00000
  18        6D 0       -0.01049   0.00000   0.00000  -0.12987   0.00000
  19        6D+1        0.00000  -0.01763   0.00000   0.00000   0.02188
  20        6D-1        0.00000   0.00000  -0.01823   0.00000   0.00000
  21        6D+2        0.00062   0.00000   0.00000   0.00092   0.00000
  22        6D-2        0.00000   0.00000   0.00000   0.00000   0.00000
  23        7D 0        1.67369   0.00000   0.00000   0.19231   0.00000
  24        7D+1        0.00000   0.06407   0.00000   0.00000  -0.14575
  25        7D-1        0.00000   0.00000   0.06554   0.00000   0.00000
  26        7D+2        0.00484   0.00000   0.00000   0.00009   0.00000
  27        7D-2        0.00000   0.00000   0.00000   0.00000   0.00000
  28 2   O  1S          0.01417   0.00000   0.00000  -0.00799   0.00000
  29        2S          0.02718   0.00000   0.00000  -0.00912   0.00000
  30        2PX         0.00000  -0.90399   0.00000   0.00000   0.91650
  31        2PY         0.00000   0.00000  -0.90018   0.00000   0.00000
  32        2PZ        -0.19553   0.00000   0.00000   0.89821   0.00000
  33        3S          0.23035   0.00000   0.00000  -0.04629   0.00000
  34        3PX         0.00000   1.03329   0.00000   0.00000  -1.11730
  35        3PY         0.00000   0.00000   1.04198   0.00000   0.00000
  36        3PZ        -0.77868   0.00000   0.00000  -0.97505   0.00000
  37        4S         -6.41613   0.00000   0.00000  -0.10440   0.00000
  38        4PX         0.00000  -0.50786   0.00000   0.00000   0.64780
  39        4PY         0.00000   0.00000  -0.51175   0.00000   0.00000
  40        4PZ        -3.81253   0.00000   0.00000   0.62752   0.00000
  41        5S          3.64367   0.00000   0.00000   0.09983   0.00000
  42        5PX         0.00000   0.16635   0.00000   0.00000  -0.37042
  43        5PY         0.00000   0.00000   0.16732   0.00000   0.00000
  44        5PZ         1.40753   0.00000   0.00000  -0.26272   0.00000
  45        6D 0        0.01049   0.00000   0.00000  -0.12987   0.00000
  46        6D+1        0.00000   0.01763   0.00000   0.00000   0.02188
  47        6D-1        0.00000   0.00000   0.01823   0.00000   0.00000
  48        6D+2       -0.00062   0.00000   0.00000   0.00092   0.00000
  49        6D-2        0.00000   0.00000   0.00000   0.00000   0.00000
  50        7D 0       -1.67369   0.00000   0.00000   0.19231   0.00000
  51        7D+1        0.00000  -0.06407   0.00000   0.00000  -0.14575
  52        7D-1        0.00000   0.00000  -0.06554   0.00000   0.00000
  53        7D+2       -0.00484   0.00000   0.00000   0.00009   0.00000
  54        7D-2        0.00000   0.00000   0.00000   0.00000   0.00000
                          41        42        43        44        45
                       (PIG)--V  (SGU)--V      V         V     (DLTU)--
     Eigenvalues --     5.55186   6.76577   7.06714   7.06873   7.19152
   1 1   O  1S          0.00000  -0.02585   0.00129   0.00000   0.00153
   2        2S          0.00000  -0.04254   0.00235   0.00000   0.00138
   3        2PX         0.00000   0.00000   0.00000   0.00000   0.00000
   4        2PY        -0.91269   0.00000   0.00000   0.00000   0.00000
   5        2PZ         0.00000   0.96823   0.01758   0.00000  -0.02476
   6        3S          0.00000  -0.05259  -0.03598   0.00000  -0.00595
   7        3PX         0.00000   0.00000   0.00000   0.00000   0.00000
   8        3PY         1.12528   0.00000   0.00000   0.00000   0.00000
   9        3PZ         0.00000  -2.06013  -0.00079   0.00000   0.04692
  10        4S          0.00000   4.30224   0.00960   0.00000  -0.03729
  11        4PX         0.00000   0.00000   0.00000   0.00000   0.00000
  12        4PY        -0.65161   0.00000   0.00000   0.00000   0.00000
  13        4PZ         0.00000  -1.86070  -0.01520   0.00000   0.00675
  14        5S          0.00000  -3.88168   0.00226   0.00000   0.05380
  15        5PX         0.00000   0.00000   0.00000   0.00000   0.00000
  16        5PY         0.37200   0.00000   0.00000   0.00000   0.00000
  17        5PZ         0.00000   1.24276  -0.00469   0.00000  -0.01492
  18        6D 0        0.00000  -0.20930  -0.07644   0.00000  -0.01660
  19        6D+1        0.00000   0.00000   0.00000   0.00000   0.00000
  20        6D-1        0.02099   0.00000   0.00000   0.00000   0.00000
  21        6D+2        0.00000   0.01533   0.78783   0.00000   0.80306
  22        6D-2        0.00000   0.00000   0.00000   0.79112   0.00000
  23        7D 0        0.00000   1.23755   0.05987   0.00000  -0.01255
  24        7D+1        0.00000   0.00000   0.00000   0.00000   0.00000
  25        7D-1       -0.14695   0.00000   0.00000   0.00000   0.00000
  26        7D+2        0.00000  -0.00725  -0.32345   0.00000  -0.43073
  27        7D-2        0.00000   0.00000   0.00000  -0.32483   0.00000
  28 2   O  1S          0.00000   0.02585   0.00129   0.00000  -0.00153
  29        2S          0.00000   0.04254   0.00235   0.00000  -0.00138
  30        2PX         0.00000   0.00000   0.00000   0.00000   0.00000
  31        2PY         0.91269   0.00000   0.00000   0.00000   0.00000
  32        2PZ         0.00000   0.96823  -0.01758   0.00000  -0.02476
  33        3S          0.00000   0.05259  -0.03598   0.00000   0.00595
  34        3PX         0.00000   0.00000   0.00000   0.00000   0.00000
  35        3PY        -1.12528   0.00000   0.00000   0.00000   0.00000
  36        3PZ         0.00000  -2.06013   0.00079   0.00000   0.04692
  37        4S          0.00000  -4.30224   0.00960   0.00000   0.03729
  38        4PX         0.00000   0.00000   0.00000   0.00000   0.00000
  39        4PY         0.65161   0.00000   0.00000   0.00000   0.00000
  40        4PZ         0.00000  -1.86070   0.01520   0.00000   0.00675
  41        5S          0.00000   3.88168   0.00226   0.00000  -0.05380
  42        5PX         0.00000   0.00000   0.00000   0.00000   0.00000
  43        5PY        -0.37200   0.00000   0.00000   0.00000   0.00000
  44        5PZ         0.00000   1.24276   0.00469   0.00000  -0.01492
  45        6D 0        0.00000   0.20930  -0.07644   0.00000   0.01660
  46        6D+1        0.00000   0.00000   0.00000   0.00000   0.00000
  47        6D-1        0.02099   0.00000   0.00000   0.00000   0.00000
  48        6D+2        0.00000  -0.01533   0.78783   0.00000  -0.80306
  49        6D-2        0.00000   0.00000   0.00000   0.79112   0.00000
  50        7D 0        0.00000  -1.23755   0.05987   0.00000   0.01255
  51        7D+1        0.00000   0.00000   0.00000   0.00000   0.00000
  52        7D-1       -0.14695   0.00000   0.00000   0.00000   0.00000
  53        7D+2        0.00000   0.00725  -0.32345   0.00000   0.43073
  54        7D-2        0.00000   0.00000   0.00000  -0.32483   0.00000
                          46        47        48        49        50
                       (DLTU)--  (PIU)--V  (PIU)--V      V     (PIG)--V
     Eigenvalues --     7.19170   7.22149   7.25883   7.26835   7.32329
   1 1   O  1S          0.00000   0.00000   0.00000  -0.00603   0.00000
   2        2S          0.00000   0.00000   0.00000  -0.02200   0.00000
   3        2PX         0.00000  -0.01577   0.00000   0.00000   0.01770
   4        2PY         0.00000   0.00000  -0.01693   0.00000   0.00000
   5        2PZ         0.00000   0.00000   0.00000  -0.18097   0.00000
   6        3S          0.00000   0.00000   0.00000   0.33938   0.00000
   7        3PX         0.00000  -0.01468   0.00000   0.00000   0.02452
   8        3PY         0.00000   0.00000  -0.01531   0.00000   0.00000
   9        3PZ         0.00000   0.00000   0.00000   0.00338   0.00000
  10        4S          0.00000   0.00000   0.00000  -0.04461   0.00000
  11        4PX         0.00000  -0.05676   0.00000   0.00000   0.37061
  12        4PY         0.00000   0.00000  -0.05677   0.00000   0.00000
  13        4PZ         0.00000   0.00000   0.00000   0.16650   0.00000
  14        5S          0.00000   0.00000   0.00000  -0.04134   0.00000
  15        5PX         0.00000   0.02767   0.00000   0.00000  -0.09484
  16        5PY         0.00000   0.00000   0.02766   0.00000   0.00000
  17        5PZ         0.00000   0.00000   0.00000   0.05427   0.00000
  18        6D 0        0.00000   0.00000   0.00000   0.83825   0.00000
  19        6D+1        0.00000   0.81157   0.00000   0.00000   0.81802
  20        6D-1        0.00000   0.00000   0.81154   0.00000   0.00000
  21        6D+2        0.00000   0.00000   0.00000   0.07196   0.00000
  22        6D-2        0.80348   0.00000   0.00000   0.00000   0.00000
  23        7D 0        0.00000   0.00000   0.00000  -0.65275   0.00000
  24        7D+1        0.00000  -0.37273   0.00000   0.00000  -0.67049
  25        7D-1        0.00000   0.00000  -0.37382   0.00000   0.00000
  26        7D+2        0.00000   0.00000   0.00000  -0.02989   0.00000
  27        7D-2       -0.43095   0.00000   0.00000   0.00000   0.00000
  28 2   O  1S          0.00000   0.00000   0.00000  -0.00603   0.00000
  29        2S          0.00000   0.00000   0.00000  -0.02200   0.00000
  30        2PX         0.00000  -0.01577   0.00000   0.00000  -0.01770
  31        2PY         0.00000   0.00000  -0.01693   0.00000   0.00000
  32        2PZ         0.00000   0.00000   0.00000   0.18097   0.00000
  33        3S          0.00000   0.00000   0.00000   0.33938   0.00000
  34        3PX         0.00000  -0.01468   0.00000   0.00000  -0.02452
  35        3PY         0.00000   0.00000  -0.01531   0.00000   0.00000
  36        3PZ         0.00000   0.00000   0.00000  -0.00338   0.00000
  37        4S          0.00000   0.00000   0.00000  -0.04461   0.00000
  38        4PX         0.00000  -0.05676   0.00000   0.00000  -0.37061
  39        4PY         0.00000   0.00000  -0.05677   0.00000   0.00000
  40        4PZ         0.00000   0.00000   0.00000  -0.16650   0.00000
  41        5S          0.00000   0.00000   0.00000  -0.04134   0.00000
  42        5PX         0.00000   0.02767   0.00000   0.00000   0.09484
  43        5PY         0.00000   0.00000   0.02766   0.00000   0.00000
  44        5PZ         0.00000   0.00000   0.00000  -0.05427   0.00000
  45        6D 0        0.00000   0.00000   0.00000   0.83825   0.00000
  46        6D+1        0.00000  -0.81157   0.00000   0.00000   0.81802
  47        6D-1        0.00000   0.00000  -0.81154   0.00000   0.00000
  48        6D+2        0.00000   0.00000   0.00000   0.07196   0.00000
  49        6D-2       -0.80348   0.00000   0.00000   0.00000   0.00000
  50        7D 0        0.00000   0.00000   0.00000  -0.65275   0.00000
  51        7D+1        0.00000   0.37273   0.00000   0.00000  -0.67049
  52        7D-1        0.00000   0.00000   0.37382   0.00000   0.00000
  53        7D+2        0.00000   0.00000   0.00000  -0.02989   0.00000
  54        7D-2        0.43095   0.00000   0.00000   0.00000   0.00000
                          51        52        53        54
                       (PIG)--V  (SGU)--V  (SGG)--V  (SGU)--V
     Eigenvalues --     7.35545   7.83731  51.35446  51.47130
   1 1   O  1S          0.00000   0.01223  -1.58945  -1.58895
   2        2S          0.00000   0.01068   1.65175   1.65671
   3        2PX         0.00000   0.00000   0.00000   0.00000
   4        2PY         0.01698   0.00000   0.00000   0.00000
   5        2PZ         0.00000  -0.25336   0.00754  -0.03137
   6        3S          0.00000  -0.05627  -0.21792  -0.20692
   7        3PX         0.00000   0.00000   0.00000   0.00000
   8        3PY         0.02612   0.00000   0.00000   0.00000
   9        3PZ         0.00000   0.30760   0.01498   0.08884
  10        4S          0.00000   1.13124   0.16610   0.19586
  11        4PX         0.00000   0.00000   0.00000   0.00000
  12        4PY         0.37129   0.00000   0.00000   0.00000
  13        4PZ         0.00000  -0.93809  -0.03760  -0.02666
  14        5S          0.00000   0.27680  -0.04864  -0.71570
  15        5PX         0.00000   0.00000   0.00000   0.00000
  16        5PY        -0.09478   0.00000   0.00000   0.00000
  17        5PZ         0.00000   0.01761   0.02906   0.21634
  18        6D 0        0.00000  -0.79847  -0.01464  -0.00139
  19        6D+1        0.00000   0.00000   0.00000   0.00000
  20        6D-1        0.81805   0.00000   0.00000   0.00000
  21        6D+2        0.00000  -0.02067   0.00018   0.00019
  22        6D-2        0.00000   0.00000   0.00000   0.00000
  23        7D 0        0.00000   0.45092   0.04988  -0.05607
  24        7D+1        0.00000   0.00000   0.00000   0.00000
  25        7D-1       -0.67343   0.00000   0.00000   0.00000
  26        7D+2        0.00000   0.01175  -0.00005  -0.00008
  27        7D-2        0.00000   0.00000   0.00000   0.00000
  28 2   O  1S          0.00000  -0.01223  -1.58945   1.58895
  29        2S          0.00000  -0.01068   1.65175  -1.65671
  30        2PX         0.00000   0.00000   0.00000   0.00000
  31        2PY        -0.01698   0.00000   0.00000   0.00000
  32        2PZ         0.00000  -0.25336  -0.00754  -0.03137
  33        3S          0.00000   0.05627  -0.21792   0.20692
  34        3PX         0.00000   0.00000   0.00000   0.00000
  35        3PY        -0.02612   0.00000   0.00000   0.00000
  36        3PZ         0.00000   0.30760  -0.01498   0.08884
  37        4S          0.00000  -1.13124   0.16610  -0.19586
  38        4PX         0.00000   0.00000   0.00000   0.00000
  39        4PY        -0.37129   0.00000   0.00000   0.00000
  40        4PZ         0.00000  -0.93809   0.03760  -0.02666
  41        5S          0.00000  -0.27680  -0.04864   0.71570
  42        5PX         0.00000   0.00000   0.00000   0.00000
  43        5PY         0.09478   0.00000   0.00000   0.00000
  44        5PZ         0.00000   0.01761  -0.02906   0.21634
  45        6D 0        0.00000   0.79847  -0.01464   0.00139
  46        6D+1        0.00000   0.00000   0.00000   0.00000
  47        6D-1        0.81805   0.00000   0.00000   0.00000
  48        6D+2        0.00000   0.02067   0.00018  -0.00019
  49        6D-2        0.00000   0.00000   0.00000   0.00000
  50        7D 0        0.00000  -0.45092   0.04988   0.05607
  51        7D+1        0.00000   0.00000   0.00000   0.00000
  52        7D-1       -0.67343   0.00000   0.00000   0.00000
  53        7D+2        0.00000  -0.01175  -0.00005   0.00008
  54        7D-2        0.00000   0.00000   0.00000   0.00000
     Beta Molecular Orbital Coefficients:
                           1         2         3         4         5
                       (SGG)--O  (SGU)--O  (SGG)--O  (SGU)--O  (PIU)--O
     Eigenvalues --   -20.73746 -20.73631  -1.70529  -1.09117  -0.79026
   1 1   O  1S          0.38997   0.39003  -0.08358  -0.08708   0.00000
   2        2S          0.33351   0.33365  -0.13946  -0.14720   0.00000
   3        2PX         0.00000   0.00000   0.00000   0.00000   0.00000
   4        2PY         0.00000   0.00000   0.00000   0.00000   0.21145
   5        2PZ        -0.00150  -0.00146  -0.07362   0.07328   0.00000
   6        3S          0.00381   0.00358   0.40185   0.44356   0.00000
   7        3PX         0.00000   0.00000   0.00000   0.00000   0.00000
   8        3PY         0.00000   0.00000   0.00000   0.00000   0.32947
   9        3PZ         0.00028   0.00115  -0.12267   0.10223   0.00000
  10        4S         -0.00031  -0.00254   0.22065   0.45768   0.00000
  11        4PX         0.00000   0.00000   0.00000   0.00000   0.00000
  12        4PY         0.00000   0.00000   0.00000   0.00000   0.22426
  13        4PZ        -0.00019   0.00095  -0.03532   0.02332   0.00000
  14        5S          0.00016   0.00382  -0.01293  -0.19899   0.00000
  15        5PX         0.00000   0.00000   0.00000   0.00000   0.00000
  16        5PY         0.00000   0.00000   0.00000   0.00000   0.00477
  17        5PZ         0.00005  -0.00117   0.00983   0.06617   0.00000
  18        6D 0        0.00016   0.00002   0.01184  -0.00452   0.00000
  19        6D+1        0.00000   0.00000   0.00000   0.00000   0.00000
  20        6D-1        0.00000   0.00000   0.00000   0.00000  -0.00910
  21        6D+2       -0.00015  -0.00017  -0.00015  -0.00070   0.00000
  22        6D-2        0.00000   0.00000   0.00000   0.00000   0.00000
  23        7D 0       -0.00005  -0.00054   0.02209  -0.00425   0.00000
  24        7D+1        0.00000   0.00000   0.00000   0.00000   0.00000
  25        7D-1        0.00000   0.00000   0.00000   0.00000  -0.02591
  26        7D+2       -0.00010  -0.00019   0.00235  -0.00266   0.00000
  27        7D-2        0.00000   0.00000   0.00000   0.00000   0.00000
  28 2   O  1S          0.38997  -0.39003  -0.08358   0.08708   0.00000
  29        2S          0.33351  -0.33365  -0.13946   0.14720   0.00000
  30        2PX         0.00000   0.00000   0.00000   0.00000   0.00000
  31        2PY         0.00000   0.00000   0.00000   0.00000   0.21145
  32        2PZ         0.00150  -0.00146   0.07362   0.07328   0.00000
  33        3S          0.00381  -0.00358   0.40185  -0.44356   0.00000
  34        3PX         0.00000   0.00000   0.00000   0.00000   0.00000
  35        3PY         0.00000   0.00000   0.00000   0.00000   0.32947
  36        3PZ        -0.00028   0.00115   0.12267   0.10223   0.00000
  37        4S         -0.00031   0.00254   0.22065  -0.45768   0.00000
  38        4PX         0.00000   0.00000   0.00000   0.00000   0.00000
  39        4PY         0.00000   0.00000   0.00000   0.00000   0.22426
  40        4PZ         0.00019   0.00095   0.03532   0.02332   0.00000
  41        5S          0.00016  -0.00382  -0.01293   0.19899   0.00000
  42        5PX         0.00000   0.00000   0.00000   0.00000   0.00000
  43        5PY         0.00000   0.00000   0.00000   0.00000   0.00477
  44        5PZ        -0.00005  -0.00117  -0.00983   0.06617   0.00000
  45        6D 0        0.00016  -0.00002   0.01184   0.00452   0.00000
  46        6D+1        0.00000   0.00000   0.00000   0.00000   0.00000
  47        6D-1        0.00000   0.00000   0.00000   0.00000   0.00910
  48        6D+2       -0.00015   0.00017  -0.00015   0.00070   0.00000
  49        6D-2        0.00000   0.00000   0.00000   0.00000   0.00000
  50        7D 0       -0.00005   0.00054   0.02209   0.00425   0.00000
  51        7D+1        0.00000   0.00000   0.00000   0.00000   0.00000
  52        7D-1        0.00000   0.00000   0.00000   0.00000   0.02591
  53        7D+2       -0.00010   0.00019   0.00235   0.00266   0.00000
  54        7D-2        0.00000   0.00000   0.00000   0.00000   0.00000
                           6         7         8         9        10
                       (SGG)--O  (PIU)--O      O         V     (SGU)--V
     Eigenvalues --    -0.75798  -0.67884  -0.45373   0.03598   0.17438
   1 1   O  1S         -0.02893   0.00000   0.00000   0.00000  -0.02019
   2        2S         -0.04906   0.00000   0.00000   0.00000  -0.03554
   3        2PX         0.00000   0.19073   0.00000   0.20262   0.00000
   4        2PY         0.00000   0.00000   0.24221   0.00000   0.00000
   5        2PZ         0.20712   0.00000   0.00000   0.00000  -0.00875
   6        3S          0.14952   0.00000   0.00000   0.00000   0.14955
   7        3PX         0.00000   0.30829   0.00000   0.32214   0.00000
   8        3PY         0.00000   0.00000   0.37199   0.00000   0.00000
   9        3PZ         0.32635   0.00000   0.00000   0.00000  -0.00920
  10        4S          0.21706   0.00000   0.00000   0.00000  -0.37440
  11        4PX         0.00000   0.24680   0.00000   0.37857   0.00000
  12        4PY         0.00000   0.00000   0.37005   0.00000   0.00000
  13        4PZ         0.20125   0.00000   0.00000   0.00000   0.47473
  14        5S          0.03019   0.00000   0.00000   0.00000   8.03088
  15        5PX         0.00000   0.01284   0.00000   0.38702   0.00000
  16        5PY         0.00000   0.00000   0.06611   0.00000   0.00000
  17        5PZ        -0.00621   0.00000   0.00000   0.00000  -3.44252
  18        6D 0       -0.01307   0.00000   0.00000   0.00000   0.00116
  19        6D+1        0.00000  -0.01085   0.00000   0.00398   0.00000
  20        6D-1        0.00000   0.00000   0.00285   0.00000   0.00000
  21        6D+2       -0.00046   0.00000   0.00000   0.00000   0.00021
  22        6D-2        0.00000   0.00000   0.00000   0.00000   0.00000
  23        7D 0       -0.02677   0.00000   0.00000   0.00000  -0.07368
  24        7D+1        0.00000  -0.04447   0.00000   0.01165   0.00000
  25        7D-1        0.00000   0.00000   0.00881   0.00000   0.00000
  26        7D+2       -0.00118   0.00000   0.00000   0.00000  -0.00032
  27        7D-2        0.00000   0.00000   0.00000   0.00000   0.00000
  28 2   O  1S         -0.02893   0.00000   0.00000   0.00000   0.02019
  29        2S         -0.04906   0.00000   0.00000   0.00000   0.03554
  30        2PX         0.00000   0.19073   0.00000  -0.20262   0.00000
  31        2PY         0.00000   0.00000  -0.24221   0.00000   0.00000
  32        2PZ        -0.20712   0.00000   0.00000   0.00000  -0.00875
  33        3S          0.14952   0.00000   0.00000   0.00000  -0.14955
  34        3PX         0.00000   0.30829   0.00000  -0.32214   0.00000
  35        3PY         0.00000   0.00000  -0.37199   0.00000   0.00000
  36        3PZ        -0.32635   0.00000   0.00000   0.00000  -0.00920
  37        4S          0.21706   0.00000   0.00000   0.00000   0.37440
  38        4PX         0.00000   0.24680   0.00000  -0.37857   0.00000
  39        4PY         0.00000   0.00000  -0.37005   0.00000   0.00000
  40        4PZ        -0.20125   0.00000   0.00000   0.00000   0.47473
  41        5S          0.03019   0.00000   0.00000   0.00000  -8.03088
  42        5PX         0.00000   0.01284   0.00000  -0.38702   0.00000
  43        5PY         0.00000   0.00000  -0.06611   0.00000   0.00000
  44        5PZ         0.00621   0.00000   0.00000   0.00000  -3.44252
  45        6D 0       -0.01307   0.00000   0.00000   0.00000  -0.00116
  46        6D+1        0.00000   0.01085   0.00000   0.00398   0.00000
  47        6D-1        0.00000   0.00000   0.00285   0.00000   0.00000
  48        6D+2       -0.00046   0.00000   0.00000   0.00000  -0.00021
  49        6D-2        0.00000   0.00000   0.00000   0.00000   0.00000
  50        7D 0       -0.02677   0.00000   0.00000   0.00000   0.07368
  51        7D+1        0.00000   0.04447   0.00000   0.01165   0.00000
  52        7D-1        0.00000   0.00000   0.00881   0.00000   0.00000
  53        7D+2       -0.00118   0.00000   0.00000   0.00000   0.00032
  54        7D-2        0.00000   0.00000   0.00000   0.00000   0.00000
                          11        12        13        14        15
                       (SGG)--V  (PIU)--V  (PIU)--V  (SGG)--V      V
     Eigenvalues --     0.18110   0.21587   0.22119   0.28494   0.28925
   1 1   O  1S          0.02099   0.00000   0.00000  -0.01104   0.00000
   2        2S          0.03457   0.00000   0.00000  -0.01710   0.00000
   3        2PX         0.00000  -0.06833   0.00000   0.00000   0.00000
   4        2PY         0.00000   0.00000  -0.06675   0.00000  -0.06857
   5        2PZ        -0.04763   0.00000   0.00000  -0.02149   0.00000
   6        3S         -0.07920   0.00000   0.00000   0.01239   0.00000
   7        3PX         0.00000  -0.05483   0.00000   0.00000   0.00000
   8        3PY         0.00000   0.00000  -0.04786   0.00000  -0.05207
   9        3PZ        -0.03087   0.00000   0.00000   0.00353   0.00000
  10        4S         -0.62140   0.00000   0.00000   0.50498   0.00000
  11        4PX         0.00000  -0.34266   0.00000   0.00000   0.00000
  12        4PY         0.00000   0.00000  -0.32859   0.00000  -0.43987
  13        4PZ        -0.23549   0.00000   0.00000  -0.15665   0.00000
  14        5S          0.94451   0.00000   0.00000  -0.17854   0.00000
  15        5PX         0.00000   0.69249   0.00000   0.00000   0.00000
  16        5PY         0.00000   0.00000   0.68996   0.00000   1.96108
  17        5PZ         0.53177   0.00000   0.00000   1.32526   0.00000
  18        6D 0       -0.00243   0.00000   0.00000   0.00790   0.00000
  19        6D+1        0.00000   0.00473   0.00000   0.00000   0.00000
  20        6D-1        0.00000   0.00000   0.00406   0.00000  -0.00069
  21        6D+2       -0.00047   0.00000   0.00000   0.00055   0.00000
  22        6D-2        0.00000   0.00000   0.00000   0.00000   0.00000
  23        7D 0        0.01088   0.00000   0.00000   0.01788   0.00000
  24        7D+1        0.00000   0.01158   0.00000   0.00000   0.00000
  25        7D-1        0.00000   0.00000   0.00664   0.00000   0.02346
  26        7D+2        0.00224   0.00000   0.00000  -0.00353   0.00000
  27        7D-2        0.00000   0.00000   0.00000   0.00000   0.00000
  28 2   O  1S          0.02099   0.00000   0.00000  -0.01104   0.00000
  29        2S          0.03457   0.00000   0.00000  -0.01710   0.00000
  30        2PX         0.00000  -0.06833   0.00000   0.00000   0.00000
  31        2PY         0.00000   0.00000  -0.06675   0.00000   0.06857
  32        2PZ         0.04763   0.00000   0.00000   0.02149   0.00000
  33        3S         -0.07920   0.00000   0.00000   0.01239   0.00000
  34        3PX         0.00000  -0.05483   0.00000   0.00000   0.00000
  35        3PY         0.00000   0.00000  -0.04786   0.00000   0.05207
  36        3PZ         0.03087   0.00000   0.00000  -0.00353   0.00000
  37        4S         -0.62140   0.00000   0.00000   0.50498   0.00000
  38        4PX         0.00000  -0.34266   0.00000   0.00000   0.00000
  39        4PY         0.00000   0.00000  -0.32859   0.00000   0.43987
  40        4PZ         0.23549   0.00000   0.00000   0.15665   0.00000
  41        5S          0.94451   0.00000   0.00000  -0.17854   0.00000
  42        5PX         0.00000   0.69249   0.00000   0.00000   0.00000
  43        5PY         0.00000   0.00000   0.68996   0.00000  -1.96108
  44        5PZ        -0.53177   0.00000   0.00000  -1.32526   0.00000
  45        6D 0       -0.00243   0.00000   0.00000   0.00790   0.00000
  46        6D+1        0.00000  -0.00473   0.00000   0.00000   0.00000
  47        6D-1        0.00000   0.00000  -0.00406   0.00000  -0.00069
[...]
    39. (0.00000) RY*( 9) O   2           s(  0.00%)p 1.00(100.00%)d 0.00(  0.00%)
    40. (0.00000) RY*(10) O   2           s(100.00%)p 0.00(  0.00%)d 0.00(  0.00%)
    41. (0.00000) RY*(11) O   2           s(  0.15%)p99.99( 99.85%)d 0.06(  0.01%)
    42. (0.00000) RY*(12) O   2           s(  1.33%)p73.51( 98.09%)d 0.43(  0.58%)
    43. (0.00000) RY*(13) O   2           s(  0.00%)p 0.00(  0.00%)d 1.00(100.00%)
    44. (0.00000) RY*(14) O   2           s(  0.00%)p 0.00(  0.00%)d 1.00(100.00%)
    45. (0.00000) RY*(15) O   2           s(  0.00%)p 1.00(  0.64%)d99.99( 99.36%)
    46. (0.00000) RY*(16) O   2           s(  0.00%)p 0.00(  0.01%)d 1.00( 99.99%)
    47. (0.00000) RY*(17) O   2           s(  0.00%)p 1.00( 20.39%)d 3.90( 79.61%)
    48. (0.00000) RY*(18) O   2           s(  0.00%)p 1.00(  0.01%)d99.99( 99.99%)
    49. (0.00000) RY*(19) O   2           s(  1.08%)p 0.25(  0.27%)d91.04( 98.65%)
    50. (0.00000) RY*(20) O   2           s(  0.03%)p 0.27(  0.01%)d99.99( 99.96%)
    51. (0.00000) RY*(21) O   2           s(  0.48%)p28.44( 13.58%)d99.99( 85.94%)
    52. (0.00000) RY*(22) O   2           s(  0.47%)p 1.12(  0.52%)d99.99( 99.01%)
    53. (0.00000) BD*( 1) O   1 - O   2  
                ( 50.00%)   0.7071* O   1 s(  0.00%)p 1.00( 99.35%)d 0.01(  0.65%)
                ( 50.00%)  -0.7071* O   2 s(  0.00%)p 1.00( 99.35%)d 0.01(  0.65%)
    54. (0.00000) BD*( 2) O   1 - O   2  
                ( 50.00%)   0.7071* O   1 s( 24.81%)p 3.02( 74.90%)d 0.01(  0.29%)
                ( 50.00%)  -0.7071* O   2 s( 24.81%)p 3.02( 74.90%)d 0.01(  0.29%)


 NHO Directionality and "Bond Bending" (deviations from line of nuclear centers)

         [Thresholds for printing:  angular deviation  >  1.0 degree]
                                    hybrid p-character > 25.0%
                                    orbital occupancy  >  0.10e

                                Line of Centers        Hybrid 1              Hybrid 2
                                ---------------  -------------------   ------------------
                NBO               Theta   Phi    Theta   Phi    Dev    Theta   Phi    Dev
 ========================================================================================
     1. BD (   1) O   1 - O   2   180.0    0.0    90.0    0.0  90.0     90.0    0.0  90.0
     6. LP (   2) O   1             --     --     90.0   90.0   --       --     --    --
     8. LP (   2) O   2             --     --     90.0   90.0   --       --     --    --


 Second Order Perturbation Theory Analysis of Fock Matrix in NBO Basis

     Threshold for printing:   0.25 kcal/mol
                                                                              E(2)  E(j)-E(i) F(i,j)
         Donor NBO (i)                     Acceptor NBO (j)                 kcal/mol   a.u.    a.u. 
 ===================================================================================================

 within unit  1
   3. CR (   1) O   1                / 32. RY*(   2) O   2                    0.48   21.21    0.128
   3. CR (   1) O   1                / 33. RY*(   3) O   2                    0.39   21.71    0.117
   4. CR (   1) O   2                / 10. RY*(   2) O   1                    0.48   21.21    0.128
   4. CR (   1) O   2                / 11. RY*(   3) O   1                    0.39   21.71    0.117
   5. LP (   1) O   1                / 32. RY*(   2) O   2                    1.32    1.82    0.062
   6. LP (   2) O   1                / 31. RY*(   1) O   2                    4.18    1.74    0.108
   6. LP (   2) O   1                / 39. RY*(   9) O   2                    0.30    1.26    0.025
   6. LP (   2) O   1                / 47. RY*(  17) O   2                    0.32    2.65    0.037
   7. LP (   1) O   2                / 10. RY*(   2) O   1                    1.32    1.82    0.062
   8. LP (   2) O   2                /  9. RY*(   1) O   1                    4.18    1.74    0.108
   8. LP (   2) O   2                / 17. RY*(   9) O   1                    0.30    1.26    0.025
   8. LP (   2) O   2                / 25. RY*(  17) O   1                    0.32    2.65    0.037


 Natural Bond Orbitals (Summary):

                                                            Principal Delocalizations
           NBO                        Occupancy    Energy   (geminal,vicinal,remote)
 ====================================================================================
 Molecular unit  1  (O2)
     1. BD (   1) O   1 - O   2          1.00000    -0.68113   
     2. BD (   2) O   1 - O   2          1.00000    -1.52048   
     3. CR (   1) O   1                  0.99995   -20.57215  32(v),33(v)
     4. CR (   1) O   2                  0.99995   -20.57215  10(v),11(v)
     5. LP (   1) O   1                  0.99904    -1.17979  32(v)
     6. LP (   2) O   1                  0.99621    -0.61529  31(v),47(v),39(v)
     7. LP (   1) O   2                  0.99904    -1.17979  10(v)
     8. LP (   2) O   2                  0.99621    -0.61529  9(v),25(v),17(v)
     9. RY*(   1) O   1                  0.00379     1.12347   
    10. RY*(   2) O   1                  0.00097     0.64089   
    11. RY*(   3) O   1                  0.00003     1.13545   
    12. RY*(   4) O   1                  0.00000     0.83645   
    13. RY*(   5) O   1                  0.00000     5.36869   
    14. RY*(   6) O   1                  0.00000     0.64864   
    15. RY*(   7) O   1                  0.00000     1.73240   
    16. RY*(   8) O   1                  0.00000     5.38333   
    17. RY*(   9) O   1                  0.00000     0.64952   
    18. RY*(  10) O   1                  0.00000    51.10477   
    19. RY*(  11) O   1                  0.00000     5.90082   
    20. RY*(  12) O   1                  0.00000     0.52441   
    21. RY*(  13) O   1                  0.00000     2.08060   
    22. RY*(  14) O   1                  0.00000     6.74154   
    23. RY*(  15) O   1                  0.00000     2.29845   
    24. RY*(  16) O   1                  0.00000     7.03998   
    25. RY*(  17) O   1                  0.00000     2.03759   
    26. RY*(  18) O   1                  0.00000     7.06871   
    27. RY*(  19) O   1                  0.00000     2.05810   
    28. RY*(  20) O   1                  0.00000     6.74574   
    29. RY*(  21) O   1                  0.00000     2.55689   
    30. RY*(  22) O   1                  0.00000     7.30170   
    31. RY*(   1) O   2                  0.00379     1.12347   
    32. RY*(   2) O   2                  0.00097     0.64089   
    33. RY*(   3) O   2                  0.00003     1.13545   
    34. RY*(   4) O   2                  0.00000     0.83645   
    35. RY*(   5) O   2                  0.00000     5.36869   
    36. RY*(   6) O   2                  0.00000     0.64864   
    37. RY*(   7) O   2                  0.00000     1.73240   
    38. RY*(   8) O   2                  0.00000     5.38333   
    39. RY*(   9) O   2                  0.00000     0.64952   
    40. RY*(  10) O   2                  0.00000    51.10477   
    41. RY*(  11) O   2                  0.00000     5.90082   
    42. RY*(  12) O   2                  0.00000     0.52441   
    43. RY*(  13) O   2                  0.00000     2.08060   
    44. RY*(  14) O   2                  0.00000     6.74154   
    45. RY*(  15) O   2                  0.00000     2.29845   
    46. RY*(  16) O   2                  0.00000     7.03998   
    47. RY*(  17) O   2                  0.00000     2.03759   
    48. RY*(  18) O   2                  0.00000     7.06871   
    49. RY*(  19) O   2                  0.00000     2.05810   
    50. RY*(  20) O   2                  0.00000     6.74574   
    51. RY*(  21) O   2                  0.00000     2.55689   
    52. RY*(  22) O   2                  0.00000     7.30170   
    53. BD*(   1) O   1 - O   2          0.00000     0.08939   
    54. BD*(   2) O   1 - O   2          0.00000     0.81503   
       -------------------------------
              Total Lewis    7.99040  ( 99.8800%)
        Valence non-Lewis    0.00000  (  0.0000%)
        Rydberg non-Lewis    0.00960  (  0.1200%)
       -------------------------------
            Total unit  1    8.00000  (100.0000%)
           Charge unit  1    0.00000
 Leave Link  607 at Fri Sep  6 10:23:36 2024, MaxMem=   104857600 cpu:               0.2 elap:               0.2
 (Enter /Users/asuyarger/Applications/G16/g16/l701.exe)
 ... and contract with generalized density number  0.
 Compute integral second derivatives.
 Leave Link  701 at Fri Sep  6 10:23:36 2024, MaxMem=   104857600 cpu:               0.1 elap:               0.1
 (Enter /Users/asuyarger/Applications/G16/g16/l702.exe)
 L702 exits ... SP integral derivatives will be done elsewhere.
 Leave Link  702 at Fri Sep  6 10:23:36 2024, MaxMem=   104857600 cpu:               0.0 elap:               0.0
 (Enter /Users/asuyarger/Applications/G16/g16/l703.exe)
 Integral derivatives from FoFJK, PRISM(SPDF).
 Compute integral second derivatives, UseDBF=F ICtDFT=           0.
 Calling FoFJK, ICntrl=    100127 FMM=F ISym2X=1 I1Cent= 0 IOpClX= 1 NMat=1 NMatS=1 NMatT=0.
 FoFJK:  IHMeth= 1 ICntrl=  100127 DoSepK=F KAlg= 0 I1Cent=           0 FoldK=F
 IRaf=         0 NMat=       1 IRICut=       1 DoRegI=T DoRafI=F ISym2E= 1 IDoP0=0 IntGTp=1.
 FoFCou: FMM=F IPFlag=           0 FMFlag=      100000 FMFlg1=         800
         NFxFlg=           0 DoJE=F BraDBF=F KetDBF=F FulRan=T
         wScrn=  0.000000 ICntrl=    100127 IOpCl=  1 I1Cent=           0 NGrid=           0
         NMat0=    1 NMatS0=      1 NMatT0=    0 NMatD0=    1 NMtDS0=    0 NMtDT0=    0
 Petite list used in FoFCou.
 Leave Link  703 at Fri Sep  6 10:23:36 2024, MaxMem=   104857600 cpu:               0.3 elap:               0.3
 (Enter /Users/asuyarger/Applications/G16/g16/l716.exe)
 Dipole        =-1.97215226D-30-1.39629921D-33 1.11022302D-16
 Polarizability= 5.56899282D+00 0.00000000D+00 5.67706344D+00
                -3.50824131D-16 0.00000000D+00 1.32508820D+01
 HyperPolar    =-1.65382070D-16-1.06350013D-16 6.33426765D-16
                -1.41211836D-15 3.29928669D-16 8.04295002D-31
                -9.50999192D-14-2.00484828D-15-6.99809843D-16
                -1.60991903D-13
 Full mass-weighted force constant matrix:
 Low frequencies ---   -0.2706   -0.0011   -0.0010    0.0019    0.2305 1969.2446
 Diagonal vibrational polarizability:
        0.0000000       0.0000000       0.0000000
 Diagonal vibrational hyperpolarizability:
        0.0000000       0.0000000      -0.0000000
 Harmonic frequencies (cm**-1), IR intensities (KM/Mole), Raman scattering
 activities (A**4/AMU), depolarization ratios for plane and unpolarized
 incident light, reduced masses (AMU), force constants (mDyne/A),
 and normal coordinates:
                      1
                     SGG
 Frequencies --   1969.2446
 Red. masses --     15.9949
 Frc consts  --     36.5453
 IR Inten    --      0.0000
 Raman Activ --     20.6593
 Depolar (P) --      0.2688
 Depolar (U) --      0.4237
  Atom  AN      X      Y      Z
     1   8    -0.00   0.00   0.71
     2   8     0.00   0.00  -0.71

 -------------------
 - Thermochemistry -
 -------------------
 Temperature   298.150 Kelvin.  Pressure   1.00000 Atm.
 Atom     1 has atomic number  8 and mass  15.99491
 Atom     2 has atomic number  8 and mass  15.99491
 Molecular mass:    31.98983 amu.
 Principal axes and moments of inertia in atomic units:
                           1         2         3
     Eigenvalues --     0.00000  38.25412  38.25412
           X           -0.00000   1.00000  -0.00000
           Y            0.00000   0.00000   1.00000
           Z            1.00000   0.00000  -0.00000
 This molecule is a prolate symmetric top.
 Rotational symmetry number  2.
 Rotational temperature (Kelvin)      2.26417
 Rotational constant (GHZ):          47.177699
 Zero-point vibrational energy      11778.7 (Joules/Mol)
                                    2.81518 (Kcal/Mol)
 Vibrational temperatures:   2833.30
          (Kelvin)
 
 Zero-point correction=                           0.004486 (Hartree/Particle)
 Thermal correction to Energy=                    0.006847
 Thermal correction to Enthalpy=                  0.007792
 Thermal correction to Gibbs Free Energy=        -0.014364
 Sum of electronic and zero-point Energies=           -149.579681
 Sum of electronic and thermal Energies=              -149.577320
 Sum of electronic and thermal Enthalpies=            -149.576375
 Sum of electronic and thermal Free Energies=         -149.598531
 
                     E (Thermal)             CV                S
                      KCal/Mol        Cal/Mol-Kelvin    Cal/Mol-Kelvin
 Total                    4.297              4.981             46.630
 Electronic               0.000              0.000              0.000
 Translational            0.889              2.981             36.321
 Rotational               0.592              1.987             10.308
 Vibrational              2.816              0.013              0.002
                       Q            Log10(Q)             Ln(Q)
 Total Bot       0.404539D+07          6.606961         15.213089
 Total V=0       0.468273D+09          8.670499         19.964563
 Vib (Bot)       0.863960D-02         -2.063506         -4.751399
 Vib (V=0)       0.100007D+01          0.000032          0.000075
 Electronic      0.100000D+01          0.000000          0.000000
 Translational   0.711167D+07          6.851972         15.777248
 Rotational      0.658408D+02          1.818495          4.187240
 ***** Axes restored to original set *****
 -------------------------------------------------------------------
 Center     Atomic                   Forces (Hartrees/Bohr)
 Number     Number              X              Y              Z
 -------------------------------------------------------------------
      1        8           0.000000023   -0.000000000   -0.000000000
      2        8          -0.000000023    0.000000000    0.000000000
 -------------------------------------------------------------------
 Cartesian Forces:  Max     0.000000023 RMS     0.000000013
 Force constants in Cartesian coordinates: 
                1             2             3             4             5 
      1  0.117366D+01
      2  0.000000D+00  0.000000D+00
      3  0.000000D+00  0.000000D+00  0.000000D+00
      4 -0.117366D+01  0.000000D+00  0.000000D+00  0.117366D+01
      5  0.000000D+00  0.000000D+00  0.000000D+00  0.000000D+00  0.000000D+00
      6  0.000000D+00  0.000000D+00  0.000000D+00  0.000000D+00  0.000000D+00
                6 
      6  0.000000D+00
 FormGI is forming the generalized inverse of G from B-inverse, IUseBI=4.
 Force constants in internal coordinates: 
                1 
      1  0.117366D+01
 Leave Link  716 at Fri Sep  6 10:23:36 2024, MaxMem=   104857600 cpu:               0.0 elap:               0.0
 (Enter /Users/asuyarger/Applications/G16/g16/l103.exe)

 GradGradGradGradGradGradGradGradGradGradGradGradGradGradGradGradGradGrad
 Berny optimization.
 Red2BG is reusing G-inverse.
 Internal  Forces:  Max     0.000000023 RMS     0.000000023
 Search for a local minimum.
 Step number   1 out of a maximum of    2
 All quantities printed in internal units (Hartrees-Bohrs-Radians)
 Second derivative matrix not updated -- analytic derivatives used.
 The second derivative matrix:
                          R1
           R1           1.17366
 ITU=  0
     Eigenvalues ---    1.17366
 Angle between quadratic step and forces=  90.00 degrees.
 Linear search not attempted -- first point.
 Iteration  1 RMS(Cart)=  0.00000001 RMS(Int)=  0.00000000
 ITry= 1 IFail=0 DXMaxC= 9.94D-09 DCOld= 1.00D+10 DXMaxT= 3.00D-01 DXLimC= 3.00D+00 Rises=F
 ClnCor:  largest displacement from symmetrization is 4.44D-16 for atom     2.
 Variable       Old X    -DE/DX   Delta X   Delta X   Delta X     New X
                                 (Linear)    (Quad)   (Total)
    R1        2.18707   0.00000   0.00000   0.00000   0.00000   2.18707
         Item               Value     Threshold  Converged?
 Maximum Force            0.000000     0.000015     YES
 RMS     Force            0.000000     0.000010     YES
 Maximum Displacement     0.000000     0.000060     YES
 RMS     Displacement     0.000000     0.000040     YES
 Predicted change in Energy=-2.320954D-16
 Optimization completed.
    -- Stationary point found.
                           ----------------------------
                           !   Optimized Parameters   !
                           ! (Angstroms and Degrees)  !
 --------------------------                            --------------------------
 ! Name  Definition              Value          Derivative Info.                !
 --------------------------------------------------------------------------------
 ! R1    R(1,2)                  1.1573         -DE/DX =    0.0                 !
 --------------------------------------------------------------------------------
 GradGradGradGradGradGradGradGradGradGradGradGradGradGradGradGradGradGrad

 Leave Link  103 at Fri Sep  6 10:23:36 2024, MaxMem=   104857600 cpu:               0.0 elap:               0.0
 (Enter /Users/asuyarger/Applications/G16/g16/l9999.exe)
 Dipole is zero, so no output in dipole orientation.

 ----------------------------------------------------------------------

 Electric dipole moment (input orientation):
 (Debye = 10**-18 statcoulomb cm , SI units = C m)
                  (au)            (Debye)         (10**-30 SI)
   Tot        0.000000D+00      0.000000D+00      0.000000D+00
   x          0.000000D+00      0.000000D+00      0.000000D+00
   y          0.000000D+00      0.000000D+00      0.000000D+00
   z          0.000000D+00      0.000000D+00      0.000000D+00

 Dipole polarizability, Alpha (input orientation).
 (esu units = cm**3 , SI units = C**2 m**2 J**-1)
 Alpha(0;0):
               (au)            (10**-24 esu)      (10**-40 SI)
   iso        0.816565D+01      0.121002D+01      0.134633D+01
   aniso      0.762843D+01      0.113042D+01      0.125776D+01
   xx         0.132509D+02      0.196358D+01      0.218478D+01
   yx         0.000000D+00      0.000000D+00      0.000000D+00
   yy         0.567706D+01      0.841254D+00      0.936021D+00
   zx         0.000000D+00      0.000000D+00      0.000000D+00
   zy         0.000000D+00      0.000000D+00      0.000000D+00
   zz         0.556899D+01      0.825240D+00      0.918203D+00

 ----------------------------------------------------------------------
 1\1\GINC-JEFFSMACSTUDIO\Freq\UHF\6-311++G(2d,3p)\O2\ROOT\06-Sep-2024\0
 \\#P Geom=AllCheck Guess=TCheck SCRF=Check GenChk UHF/6-311++G(2d,3p) 
 Freq\\O2 uHF 6-311++g(2d,3p) Opt Freq\\0,1\O,-0.5355794713,0.31645569,
 0.\O,-1.6929282487,0.31645569,0.\\Version=EM64M-G16RevA.03\HF=-149.584
 1669\S2=0.\S2-1=0.\S2A=0.\RMSD=5.933e-10\RMSF=1.348e-08\ZeroPoint=0.00
 44863\Thermal=0.0068474\Dipole=0.,0.,0.\DipoleDeriv=0.,0.,0.,0.,0.,0.,
 0.,0.,0.,0.,0.,0.,0.,0.,0.,0.,0.,0.\Polar=13.250882,0.,5.6770634,0.,0.
 ,5.5689928\PolarDeriv=12.8794616,0.,-0.3377911,0.,0.,2.0562801,0.,3.46
 29941,0.,0.,0.,0.,0.,0.,0.,3.5124061,0.,0.,-12.8794616,0.,0.3377911,0.
 ,0.,-2.0562801,0.,-3.4629941,0.,0.,0.,0.,0.,0.,0.,-3.5124061,0.,0.\Hyp
 erPolar=0.,0.,0.,0.,0.,0.,0.,0.,0.,0.\Quadrupole=-0.2560921,-0.5068772
 ,0.7629693,0.,0.,0.\PG=D*H [C*(O1.O1)]\NImag=0\\1.17366113,0.,-0.00000
 002,0.,0.,0.00000002,-1.17366113,0.,0.,1.17366113,0.,0.00000002,0.,0.,
 -0.00000002,0.,0.,-0.00000002,0.,0.,0.00000002\\-0.00000002,0.,0.,0.00
 000002,0.,0.\\\@


 IMAGINATION WILL OFTEN CARRY US TO WORLDS THAT NEVER WERE.
 BUT WITHOUT IT, WE GO NOWHERE. -- CARL SAGAN (COSMOS)
 Job cpu time:       0 days  0 hours  0 minutes  2.6 seconds.
 Elapsed time:       0 days  0 hours  0 minutes  2.4 seconds.
 File lengths (MBytes):  RWF=      6 Int=      0 D2E=      0 Chk=      1 Scr=      1
 Normal termination of Gaussian 16 at Fri Sep  6 10:23:36 2024.
