 Entering Gaussian System, Link 0=g16
 Input=/Users/asuyarger/Downloads/r1234yf_PM6_Opt_Freq_Full_NBO.gjf
 Output=/Users/asuyarger/Downloads/r1234yf_PM6_Opt_Freq_Full_NBO.log
 Initial command:
 /Users/asuyarger/Applications/G16/g16/l1.exe "/Users/asuyarger/Applications/G16/scratch/Gau-89795.inp" -scrdir="/Users/asuyarger/Applications/G16/scratch/"
 Entering Link 1 = /Users/asuyarger/Applications/G16/g16/l1.exe PID=     89796.
  
 Copyright (c) 1988,1990,1992,1993,1995,1998,2003,2009,2016,
            Gaussian, Inc.  All Rights Reserved.
  
 This is part of the Gaussian(R) 16 program.  It is based on
 the Gaussian(R) 09 system (copyright 2009, Gaussian, Inc.),
 the Gaussian(R) 03 system (copyright 2003, Gaussian, Inc.),
 the Gaussian(R) 98 system (copyright 1998, Gaussian, Inc.),
 the Gaussian(R) 94 system (copyright 1995, Gaussian, Inc.),
 the Gaussian 92(TM) system (copyright 1992, Gaussian, Inc.),
 the Gaussian 90(TM) system (copyright 1990, Gaussian, Inc.),
 the Gaussian 88(TM) system (copyright 1988, Gaussian, Inc.),
 the Gaussian 86(TM) system (copyright 1986, Carnegie Mellon
 University), and the Gaussian 82(TM) system (copyright 1983,
 Carnegie Mellon University). Gaussian is a federally registered
 trademark of Gaussian, Inc.
  
 This software contains proprietary and confidential information,
 including trade secrets, belonging to Gaussian, Inc.
  
 This software is provided under written license and may be
 used, copied, transmitted, or stored only in accord with that
 written license.
  
 The following legend is applicable only to US Government
 contracts under FAR:
  
                    RESTRICTED RIGHTS LEGEND
  
 Use, reproduction and disclosure by the US Government is
 subject to restrictions as set forth in subparagraphs (a)
 and (c) of the Commercial Computer Software - Restricted
 Rights clause in FAR 52.227-19.
  
 Gaussian, Inc.
 340 Quinnipiac St., Bldg. 40, Wallingford CT 06492
  
  
 ---------------------------------------------------------------
 Warning -- This program may not be used in any manner that
 competes with the business of Gaussian, Inc. or will provide
 assistance to any competitor of Gaussian, Inc.  The licensee
 of this program is prohibited from giving any competitor of
 Gaussian, Inc. access to this program.  By using this program,
 the user acknowledges that Gaussian, Inc. is engaged in the
 business of creating and licensing software in the field of
 computational chemistry and represents and warrants to the
 licensee that it is not a competitor of Gaussian, Inc. and that
 it will not use this program in any manner prohibited above.
 ---------------------------------------------------------------
  

 Cite this work as:
 Gaussian 16, Revision A.03,
 M. J. Frisch, G. W. Trucks, H. B. Schlegel, G. E. Scuseria, 
 M. A. Robb, J. R. Cheeseman, G. Scalmani, V. Barone, 
 G. A. Petersson, H. Nakatsuji, X. Li, M. Caricato, A. V. Marenich, 
 J. Bloino, B. G. Janesko, R. Gomperts, B. Mennucci, H. P. Hratchian, 
 J. V. Ortiz, A. F. Izmaylov, J. L. Sonnenberg, D. Williams-Young, 
 F. Ding, F. Lipparini, F. Egidi, J. Goings, B. Peng, A. Petrone, 
 T. Henderson, D. Ranasinghe, V. G. Zakrzewski, J. Gao, N. Rega, 
 G. Zheng, W. Liang, M. Hada, M. Ehara, K. Toyota, R. Fukuda, 
 J. Hasegawa, M. Ishida, T. Nakajima, Y. Honda, O. Kitao, H. Nakai, 
 T. Vreven, K. Throssell, J. A. Montgomery, Jr., J. E. Peralta, 
 F. Ogliaro, M. J. Bearpark, J. J. Heyd, E. N. Brothers, K. N. Kudin, 
 V. N. Staroverov, T. A. Keith, R. Kobayashi, J. Normand, 
 K. Raghavachari, A. P. Rendell, J. C. Burant, S. S. Iyengar, 
 J. Tomasi, M. Cossi, J. M. Millam, M. Klene, C. Adamo, R. Cammi, 
 J. W. Ochterski, R. L. Martin, K. Morokuma, O. Farkas, 
 J. B. Foresman, and D. J. Fox, Gaussian, Inc., Wallingford CT, 2016.
 
 ******************************************
 Gaussian 16:  EM64M-G16RevA.03 25-Dec-2016
                 6-Sep-2024 
 ******************************************
 %nprocshared=12
 Will use up to   12 processors via shared memory.
 %mem=12GB
 %chk=r1234yf_PM6_Opt_Freq_Full_NBO.chk
 ----------------------------------------------------------------------
 #p opt=tight freq pm6 guess=save pop=(hirshfeld,full,nbo) geom=connect
 ivity polar
 ----------------------------------------------------------------------
 1/7=10,18=20,19=15,26=1,38=1,57=2/1,3;
 2/9=110,12=2,17=6,18=5,40=1/2;
 3/5=2,25=1,41=3900000,71=1/1,2,3;
 4/35=1/1;
 5/5=2,35=1,38=5,98=1/2;
 6/7=3,28=1,40=1,79=1/1,7;
 7//1,2,3,16;
 1/7=10,18=20,19=15,26=1/3(2);
 2/9=110/2;
 99//99;
 2/9=110/2;
 3/5=2,25=1,41=3900000,71=1,135=20/1,2,3;
 4/5=5,16=3,35=1/1;
 5/5=2,35=1,38=5,98=1/2;
 7//1,2,3,16;
 1/7=10,18=20,19=15,26=1/3(-5);
 2/9=110/2;
 6/7=3,19=2,28=1,40=1,79=1/1,7;
 99/9=1/99;
 Leave Link    1 at Fri Sep  6 11:36:23 2024, MaxMem=  1610612736 cpu:               0.3 elap:               0.0
 (Enter /Users/asuyarger/Applications/G16/g16/l101.exe)
 ---------------------------------
 R1234YF PM6 Opt Freq - Full - NBO
 ---------------------------------
 Symbolic Z-matrix:
 Charge =  0 Multiplicity = 2
 C                    -1.11165   1.03928   0.00326 
 F                    -0.40991   1.47028   1.07297 
 F                    -2.298     1.68172  -0.04524 
 C                    -0.31705   1.3308   -1.2833 
 H                    -0.14906   2.38414  -1.36779 
 F                    -1.32361  -0.28971   0.10986 
 F                     0.8693    0.68836  -1.2348 
 C                    -1.0215    0.89814  -2.35714 
 H                    -1.28362  -0.13563  -2.44385 
 H                    -1.31558   1.5903   -3.11827 
 
 ITRead=  0  0  0  0  0  0  0  0  0  0
 MicOpt= -1 -1 -1 -1 -1 -1 -1 -1 -1 -1
 NAtoms=     10 NQM=       10 NQMF=       0 NMMI=      0 NMMIF=      0
                NMic=       0 NMicF=      0.
                    Isotopes and Nuclear Properties:
 (Nuclear quadrupole moments (NQMom) in fm**2, nuclear magnetic moments (NMagM)
  in nuclear magnetons)

  Atom         1           2           3           4           5           6           7           8           9          10
 IAtWgt=          12          19          19          12           1          19          19          12           1           1
 AtmWgt=  12.0000000  18.9984033  18.9984033  12.0000000   1.0078250  18.9984033  18.9984033  12.0000000   1.0078250   1.0078250
 NucSpn=           0           1           1           0           1           1           1           0           1           1
 AtZEff=  -0.0000000  -0.0000000  -0.0000000  -0.0000000  -0.0000000  -0.0000000  -0.0000000  -0.0000000  -0.0000000  -0.0000000
 NQMom=    0.0000000   0.0000000   0.0000000   0.0000000   0.0000000   0.0000000   0.0000000   0.0000000   0.0000000   0.0000000
 NMagM=    0.0000000   2.6288670   2.6288670   0.0000000   2.7928460   2.6288670   2.6288670   0.0000000   2.7928460   2.7928460
 AtZNuc=   6.0000000   9.0000000   9.0000000   6.0000000   1.0000000   9.0000000   9.0000000   6.0000000   1.0000000   1.0000000
 Leave Link  101 at Fri Sep  6 11:36:23 2024, MaxMem=  1610612736 cpu:               2.4 elap:               0.2
 (Enter /Users/asuyarger/Applications/G16/g16/l103.exe)

 GradGradGradGradGradGradGradGradGradGradGradGradGradGradGradGradGradGrad
 Berny optimization.
 Initialization pass.
                           ----------------------------
                           !    Initial Parameters    !
                           ! (Angstroms and Degrees)  !
 --------------------------                            --------------------------
 ! Name  Definition              Value          Derivative Info.                !
 --------------------------------------------------------------------------------
 ! R1    R(1,2)                  1.35           estimate D2E/DX2                !
 ! R2    R(1,3)                  1.35           estimate D2E/DX2                !
 ! R3    R(1,4)                  1.54           estimate D2E/DX2                !
 ! R4    R(1,6)                  1.35           estimate D2E/DX2                !
 ! R5    R(4,5)                  1.07           estimate D2E/DX2                !
 ! R6    R(4,7)                  1.35           estimate D2E/DX2                !
 ! R7    R(4,8)                  1.3552         estimate D2E/DX2                !
 ! R8    R(8,9)                  1.07           estimate D2E/DX2                !
 ! R9    R(8,10)                 1.07           estimate D2E/DX2                !
 ! A1    A(2,1,3)              109.4712         estimate D2E/DX2                !
 ! A2    A(2,1,4)              109.4712         estimate D2E/DX2                !
 ! A3    A(2,1,6)              109.4712         estimate D2E/DX2                !
 ! A4    A(3,1,4)              109.4712         estimate D2E/DX2                !
 ! A5    A(3,1,6)              109.4712         estimate D2E/DX2                !
 ! A6    A(4,1,6)              109.4712         estimate D2E/DX2                !
 ! A7    A(1,4,5)              109.4712         estimate D2E/DX2                !
 ! A8    A(1,4,7)              109.4712         estimate D2E/DX2                !
 ! A9    A(1,4,8)              109.4712         estimate D2E/DX2                !
 ! A10   A(5,4,7)              109.4712         estimate D2E/DX2                !
 ! A11   A(5,4,8)              109.4712         estimate D2E/DX2                !
 ! A12   A(7,4,8)              109.4712         estimate D2E/DX2                !
 ! A13   A(4,8,9)              120.0            estimate D2E/DX2                !
 ! A14   A(4,8,10)             120.0            estimate D2E/DX2                !
 ! A15   A(9,8,10)             120.0            estimate D2E/DX2                !
 ! D1    D(2,1,4,5)            -60.0            estimate D2E/DX2                !
 ! D2    D(2,1,4,7)             60.0            estimate D2E/DX2                !
 ! D3    D(2,1,4,8)            180.0            estimate D2E/DX2                !
 ! D4    D(3,1,4,5)             60.0            estimate D2E/DX2                !
 ! D5    D(3,1,4,7)            180.0            estimate D2E/DX2                !
 ! D6    D(3,1,4,8)            -60.0            estimate D2E/DX2                !
 ! D7    D(6,1,4,5)            180.0            estimate D2E/DX2                !
 ! D8    D(6,1,4,7)            -60.0            estimate D2E/DX2                !
 ! D9    D(6,1,4,8)             60.0            estimate D2E/DX2                !
 ! D10   D(1,4,8,9)            -60.0            estimate D2E/DX2                !
 ! D11   D(1,4,8,10)           120.0            estimate D2E/DX2                !
 ! D12   D(5,4,8,9)            180.0            estimate D2E/DX2                !
 ! D13   D(5,4,8,10)             0.0            estimate D2E/DX2                !
 ! D14   D(7,4,8,9)             60.0            estimate D2E/DX2                !
 ! D15   D(7,4,8,10)          -120.0            estimate D2E/DX2                !
 --------------------------------------------------------------------------------
 Trust Radius=3.00D-01 FncErr=1.00D-07 GrdErr=1.00D-07 EigMax=2.50D+02 EigMin=1.00D-04
 Number of steps in this run=     49 maximum allowed number of steps=    100.
 GradGradGradGradGradGradGradGradGradGradGradGradGradGradGradGradGradGrad

 Leave Link  103 at Fri Sep  6 11:36:23 2024, MaxMem=  1610612736 cpu:               0.1 elap:               0.0
 (Enter /Users/asuyarger/Applications/G16/g16/l202.exe)
                          Input orientation:                          
 ---------------------------------------------------------------------
 Center     Atomic      Atomic             Coordinates (Angstroms)
 Number     Number       Type             X           Y           Z
 ---------------------------------------------------------------------
      1          6           0       -1.111654    1.039281    0.003256
      2          9           0       -0.409910    1.470283    1.072973
      3          9           0       -2.298004    1.681715   -0.045240
      4          6           0       -0.317054    1.330798   -1.283300
      5          1           0       -0.149057    2.384144   -1.367795
      6          9           0       -1.323613   -0.289707    0.109862
      7          9           0        0.869296    0.688364   -1.234804
      8          6           0       -1.021501    0.898136   -2.357137
      9          1           0       -1.283615   -0.135632   -2.443849
     10          1           0       -1.315584    1.590296   -3.118274
 ---------------------------------------------------------------------
                    Distance matrix (angstroms):
                    1          2          3          4          5
     1  C    0.000000
     2  F    1.350000   0.000000
     3  F    1.350000   2.204541   0.000000
     4  C    1.540000   2.362224   2.362224   0.000000
     5  H    2.148263   2.619262   2.619262   1.070000   0.000000
     6  F    1.350000   2.204541   2.204541   2.362224   3.273001
     7  F    2.362224   2.752017   3.526131   1.350000   1.982524
     8  C    2.366327   3.530870   2.754692   1.355200   1.987002
     9  H    2.719984   3.963629   3.175699   2.105120   2.965533
    10  H    3.176344   4.289662   3.227546   2.105120   2.248368
                    6          7          8          9         10
     6  F    0.000000
     7  F    2.752017   0.000000
     8  C    2.754692   2.208789   0.000000
     9  H    2.558667   2.603033   1.070000   0.000000
    10  H    3.735684   3.022357   1.070000   1.853294   0.000000
 Stoichiometry    C3H3F4(2)
 Framework group  C1[X(C3H3F4)]
 Deg. of freedom    24
 Full point group                 C1      NOp   1
 Largest Abelian subgroup         C1      NOp   1
 Largest concise Abelian subgroup C1      NOp   1
                         Standard orientation:                         
 ---------------------------------------------------------------------
 Center     Atomic      Atomic             Coordinates (Angstroms)
 Number     Number       Type             X           Y           Z
 ---------------------------------------------------------------------
      1          6           0        0.609610    0.014474   -0.006308
      2          9           0        1.243581   -1.079772   -0.478756
      3          9           0        1.203437    1.124349   -0.494209
      4          6           0       -0.865095   -0.015488   -0.448967
      5          1           0       -0.916585   -0.023919   -1.517695
      6          9           0        0.674574    0.025111    1.342086
      7          9           0       -1.458921   -1.125363    0.038933
      8          6           0       -1.501507    1.082973    0.025300
      9          1           0       -1.551599    1.258810    1.079564
     10          1           0       -1.953897    1.774427   -0.654505
 ---------------------------------------------------------------------
 Rotational constants (GHZ):           3.6700433           2.4815160           2.0862517
 Leave Link  202 at Fri Sep  6 11:36:23 2024, MaxMem=  1610612736 cpu:               0.1 elap:               0.0
 (Enter /Users/asuyarger/Applications/G16/g16/l301.exe)
 Standard basis: VSTO-6G (5D, 7F)
 Ernie: Thresh=  0.10000D-02 Tol=  0.10000D-05 Strict=F.
  NNHCO=     0 NNPyr=     0 NCTC=     0               EPep=         0.000000000
    EC=       168.597667381  ECS=         1.881240982   EG=         0.223111485
   EHC=         0.000679574  EAt=       -82.758593409  AtH=         1.186493640
 EPDDG=         0.000000000  ECC=       170.702699422 EAtT=        83.945087049
 There are    31 symmetry adapted cartesian basis functions of A   symmetry.
 There are    31 symmetry adapted basis functions of A   symmetry.
    31 basis functions,   186 primitive gaussians,    31 cartesian basis functions
    22 alpha electrons       21 beta electrons
       nuclear repulsion energy       254.6477864713 Hartrees.
 IExCor=    0 DFT=F Ex=HF Corr=None ExCW=0 ScaHFX=  1.000000
 ScaDFX=  1.000000  1.000000  1.000000  1.000000 ScalE2=  1.000000  1.000000
 IRadAn=      5 IRanWt=     -1 IRanGd=            0 ICorTp=0 IEmpDi=  4
 Integral buffers will be    131072 words long.
 Regular integral format.
 Two-electron integral symmetry is turned off.
 Leave Link  301 at Fri Sep  6 11:36:24 2024, MaxMem=  1610612736 cpu:               0.2 elap:               0.0
 (Enter /Users/asuyarger/Applications/G16/g16/l302.exe)
 Do NDO integrals.
 NPDir=0 NMtPBC=     1 NCelOv=     1 NCel=       1 NClECP=     1 NCelD=      1
         NCelK=      1 NCelE2=     1 NClLst=     1 CellRange=     0.0.
 One-electron integrals computed using PRISM.
 NBasis=    31 RedAO= F EigKep=  0.00D+00  NBF=    31
 NBsUse=    31 1.00D-04 EigRej=  0.00D+00 NBFU=    31
 Leave Link  302 at Fri Sep  6 11:36:24 2024, MaxMem=  1610612736 cpu:               0.5 elap:               0.1
 (Enter /Users/asuyarger/Applications/G16/g16/l303.exe)
 DipDrv:  MaxL=1.
 Leave Link  303 at Fri Sep  6 11:36:24 2024, MaxMem=  1610612736 cpu:               0.2 elap:               0.0
 (Enter /Users/asuyarger/Applications/G16/g16/l401.exe)
 Simple Huckel Guess.
 JPrj=0 DoOrth=F DoCkMO=F.
 Initial guess <Sx>= 0.0000 <Sy>= 0.0000 <Sz>= 0.5000 <S**2>= 0.7500 S= 0.5000
 Leave Link  401 at Fri Sep  6 11:36:24 2024, MaxMem=  1610612736 cpu:               0.2 elap:               0.0
 (Enter /Users/asuyarger/Applications/G16/g16/l502.exe)
 Keep J ints in memory in canonical form, NReq=861997.
 FoFCou: FMM=F IPFlag=           0 FMFlag=           0 FMFlg1=           0
         NFxFlg=           0 DoJE=F BraDBF=F KetDBF=F FulRan=T
         wScrn=  0.000000 ICntrl=       600 IOpCl=  2 I1Cent=           0 NGrid=           0
         NMat0=    1 NMatS0=     73 NMatT0=    0 NMatD0=    1 NMtDS0=    0 NMtDT0=    0
 Symmetry not used in FoFCou.
 Two-electron integral symmetry not used.
 UHF open shell SCF:
 Using DIIS extrapolation, IDIIS=  1040.
 Overlap will be assumed to be unity.
 NGot=  1610612736 LenX=  1610548228 LenY=  1610546826
 Requested convergence on RMS density matrix=1.00D-08 within 128 cycles.
 Requested convergence on MAX density matrix=1.00D-06.
 Requested convergence on             energy=1.00D-06.
 No special actions if energy rises.

 Cycle   1  Pass 1  IDiag  1:
 E= 0.539391462843639    
 DIIS: error= 8.75D-02 at cycle   1 NSaved=   1.
 NSaved= 1 IEnMin= 1 EnMin= 0.539391462843639     IErMin= 1 ErrMin= 8.75D-02
 ErrMax= 8.75D-02  0.00D+00 EMaxC= 1.00D-01 BMatC= 1.10D+00 BMatP= 1.10D+00
 IDIUse=3 WtCom= 1.25D-01 WtEn= 8.75D-01
 Coeff-Com:  0.100D+01
 Coeff-En:   0.100D+01
 Coeff:      0.100D+01
 GapD=    2.000 DampG=2.000 DampE=0.500 DampFc=1.0000 IDamp=-1.
 RMSDP=2.22D-02 MaxDP=1.22D-01              OVMax= 0.00D+00

 Cycle   2  Pass 1  IDiag  1:
 E=-0.154842895541492     Delta-E=       -0.694234358385 Rises=F Damp=F
 DIIS: error= 2.61D-02 at cycle   2 NSaved=   2.
 NSaved= 2 IEnMin= 2 EnMin=-0.154842895541492     IErMin= 2 ErrMin= 2.61D-02
 ErrMax= 2.61D-02  0.00D+00 EMaxC= 1.00D-01 BMatC= 1.44D-01 BMatP= 1.10D+00
 IDIUse=3 WtCom= 7.39D-01 WtEn= 2.61D-01
 Coeff-Com: -0.475D+00 0.148D+01
 Coeff-En:   0.000D+00 0.100D+01
 Coeff:     -0.351D+00 0.135D+01
 RMSDP=1.18D-02 MaxDP=8.99D-02 DE=-6.94D-01 OVMax= 0.00D+00

 Cycle   3  Pass 1  IDiag  1:
 E=-0.262149703853822     Delta-E=       -0.107306808312 Rises=F Damp=F
 DIIS: error= 5.63D-03 at cycle   3 NSaved=   3.
 NSaved= 3 IEnMin= 3 EnMin=-0.262149703853822     IErMin= 3 ErrMin= 5.63D-03
 ErrMax= 5.63D-03  0.00D+00 EMaxC= 1.00D-01 BMatC= 4.63D-03 BMatP= 1.44D-01
 IDIUse=3 WtCom= 9.44D-01 WtEn= 5.63D-02
 Coeff-Com:  0.995D-01-0.377D+00 0.128D+01
 Coeff-En:   0.000D+00 0.000D+00 0.100D+01
 Coeff:      0.939D-01-0.356D+00 0.126D+01
 RMSDP=2.89D-03 MaxDP=2.25D-02 DE=-1.07D-01 OVMax= 0.00D+00

 Cycle   4  Pass 1  IDiag  3:
 E=-0.268164532519279     Delta-E=       -0.006014828665 Rises=F Damp=F
 DIIS: error= 2.70D-03 at cycle   4 NSaved=   4.
 NSaved= 4 IEnMin= 4 EnMin=-0.268164532519279     IErMin= 4 ErrMin= 2.70D-03
 ErrMax= 2.70D-03  0.00D+00 EMaxC= 1.00D-01 BMatC= 8.58D-04 BMatP= 4.63D-03
 IDIUse=3 WtCom= 9.73D-01 WtEn= 2.70D-02
 Coeff-Com:  0.829D-02 0.591D-03-0.740D+00 0.173D+01
 Coeff-En:   0.000D+00 0.000D+00 0.000D+00 0.100D+01
 Coeff:      0.806D-02 0.575D-03-0.721D+00 0.171D+01
 Gap=     0.432 Goal=   None    Shift=    0.000
 Gap=     0.447 Goal=   None    Shift=    0.000
 RMSDP=2.12D-03 MaxDP=1.66D-02 DE=-6.01D-03 OVMax= 1.88D-02

 Cycle   5  Pass 1  IDiag  3:
 E=-0.269679847870293     Delta-E=       -0.001515315351 Rises=F Damp=F
 DIIS: error= 5.00D-04 at cycle   5 NSaved=   5.
 NSaved= 5 IEnMin= 5 EnMin=-0.269679847870293     IErMin= 5 ErrMin= 5.00D-04
 ErrMax= 5.00D-04  0.00D+00 EMaxC= 1.00D-01 BMatC= 3.11D-05 BMatP= 8.58D-04
 IDIUse=3 WtCom= 9.95D-01 WtEn= 5.00D-03
 Coeff-Com: -0.125D-02-0.110D-01 0.423D+00-0.106D+01 0.165D+01
 Coeff-En:   0.000D+00 0.000D+00 0.000D+00 0.000D+00 0.100D+01
 Coeff:     -0.124D-02-0.109D-01 0.421D+00-0.106D+01 0.165D+01
 Gap=     0.435 Goal=   None    Shift=    0.000
 Gap=     0.447 Goal=   None    Shift=    0.000
 RMSDP=4.08D-04 MaxDP=3.14D-03 DE=-1.52D-03 OVMax= 4.73D-03

 Cycle   6  Pass 1  IDiag  3:
 E=-0.269736703799254     Delta-E=       -0.000056855929 Rises=F Damp=F
 DIIS: error= 1.17D-04 at cycle   6 NSaved=   6.
 NSaved= 6 IEnMin= 6 EnMin=-0.269736703799254     IErMin= 6 ErrMin= 1.17D-04
 ErrMax= 1.17D-04  0.00D+00 EMaxC= 1.00D-01 BMatC= 2.44D-06 BMatP= 3.11D-05
 IDIUse=3 WtCom= 9.99D-01 WtEn= 1.17D-03
 Coeff-Com: -0.303D-04 0.712D-02-0.179D+00 0.452D+00-0.899D+00 0.162D+01
 Coeff-En:   0.000D+00 0.000D+00 0.000D+00 0.000D+00 0.000D+00 0.100D+01
 Coeff:     -0.302D-04 0.712D-02-0.179D+00 0.451D+00-0.897D+00 0.162D+01
 Gap=     0.435 Goal=   None    Shift=    0.000
 Gap=     0.447 Goal=   None    Shift=    0.000
 RMSDP=1.18D-04 MaxDP=7.87D-04 DE=-5.69D-05 OVMax= 1.87D-03

 Cycle   7  Pass 1  IDiag  3:
 E=-0.269741387596980     Delta-E=       -0.000004683798 Rises=F Damp=F
 DIIS: error= 3.83D-05 at cycle   7 NSaved=   7.
 NSaved= 7 IEnMin= 7 EnMin=-0.269741387596980     IErMin= 7 ErrMin= 3.83D-05
 ErrMax= 3.83D-05  0.00D+00 EMaxC= 1.00D-01 BMatC= 2.59D-07 BMatP= 2.44D-06
 IDIUse=1 WtCom= 1.00D+00 WtEn= 0.00D+00
 Coeff-Com:  0.269D-03-0.495D-02 0.957D-01-0.238D+00 0.512D+00-0.119D+01
 Coeff-Com:  0.183D+01
 Coeff:      0.269D-03-0.495D-02 0.957D-01-0.238D+00 0.512D+00-0.119D+01
 Coeff:      0.183D+01
 Gap=     0.435 Goal=   None    Shift=    0.000
 Gap=     0.447 Goal=   None    Shift=    0.000
 RMSDP=4.11D-05 MaxDP=2.37D-04 DE=-4.68D-06 OVMax= 5.02D-04

 Cycle   8  Pass 1  IDiag  3:
 E=-0.269741903814378     Delta-E=       -0.000000516217 Rises=F Damp=F
 DIIS: error= 1.03D-05 at cycle   8 NSaved=   8.
 NSaved= 8 IEnMin= 8 EnMin=-0.269741903814378     IErMin= 8 ErrMin= 1.03D-05
 ErrMax= 1.03D-05  0.00D+00 EMaxC= 1.00D-01 BMatC= 1.93D-08 BMatP= 2.59D-07
 IDIUse=1 WtCom= 1.00D+00 WtEn= 0.00D+00
 Coeff-Com: -0.170D-03 0.202D-02-0.313D-01 0.765D-01-0.181D+00 0.490D+00
 Coeff-Com: -0.970D+00 0.161D+01
 Coeff:     -0.170D-03 0.202D-02-0.313D-01 0.765D-01-0.181D+00 0.490D+00
 Coeff:     -0.970D+00 0.161D+01
 Gap=     0.435 Goal=   None    Shift=    0.000
 Gap=     0.447 Goal=   None    Shift=    0.000
 RMSDP=1.03D-05 MaxDP=6.39D-05 DE=-5.16D-07 OVMax= 1.12D-04

 Cycle   9  Pass 1  IDiag  3:
 E=-0.269741939514404     Delta-E=       -0.000000035700 Rises=F Damp=F
 DIIS: error= 3.17D-06 at cycle   9 NSaved=   9.
 NSaved= 9 IEnMin= 9 EnMin=-0.269741939514404     IErMin= 9 ErrMin= 3.17D-06
 ErrMax= 3.17D-06  0.00D+00 EMaxC= 1.00D-01 BMatC= 1.62D-09 BMatP= 1.93D-08
 IDIUse=1 WtCom= 1.00D+00 WtEn= 0.00D+00
 Coeff-Com:  0.261D-04-0.329D-03 0.405D-02-0.952D-02 0.294D-01-0.988D-01
 Coeff-Com:  0.230D+00-0.631D+00 0.148D+01
 Coeff:      0.261D-04-0.329D-03 0.405D-02-0.952D-02 0.294D-01-0.988D-01
 Coeff:      0.230D+00-0.631D+00 0.148D+01
 Gap=     0.435 Goal=   None    Shift=    0.000
 Gap=     0.447 Goal=   None    Shift=    0.000
 RMSDP=2.86D-06 MaxDP=2.19D-05 DE=-3.57D-08 OVMax= 3.08D-05

 Cycle  10  Pass 1  IDiag  3:
 E=-0.269741942401652     Delta-E=       -0.000000002887 Rises=F Damp=F
 DIIS: error= 1.09D-06 at cycle  10 NSaved=  10.
 NSaved=10 IEnMin=10 EnMin=-0.269741942401652     IErMin=10 ErrMin= 1.09D-06
 ErrMax= 1.09D-06  0.00D+00 EMaxC= 1.00D-01 BMatC= 1.44D-10 BMatP= 1.62D-09
 IDIUse=1 WtCom= 1.00D+00 WtEn= 0.00D+00
 Coeff-Com: -0.559D-05 0.915D-04-0.924D-03 0.206D-02-0.850D-02 0.320D-01
 Coeff-Com: -0.757D-01 0.240D+00-0.810D+00 0.162D+01
 Coeff:     -0.559D-05 0.915D-04-0.924D-03 0.206D-02-0.850D-02 0.320D-01
 Coeff:     -0.757D-01 0.240D+00-0.810D+00 0.162D+01
 Gap=     0.435 Goal=   None    Shift=    0.000
 Gap=     0.447 Goal=   None    Shift=    0.000
 RMSDP=8.87D-07 MaxDP=7.01D-06 DE=-2.89D-09 OVMax= 9.85D-06

 Cycle  11  Pass 1  IDiag  3:
 E=-0.269741942667281     Delta-E=       -0.000000000266 Rises=F Damp=F
 DIIS: error= 3.51D-07 at cycle  11 NSaved=  11.
 NSaved=11 IEnMin=11 EnMin=-0.269741942667281     IErMin=11 ErrMin= 3.51D-07
 ErrMax= 3.51D-07  0.00D+00 EMaxC= 1.00D-01 BMatC= 1.29D-11 BMatP= 1.44D-10
 IDIUse=1 WtCom= 1.00D+00 WtEn= 0.00D+00
 Coeff-Com:  0.302D-05-0.424D-04 0.315D-03-0.649D-03 0.358D-02-0.146D-01
 Coeff-Com:  0.348D-01-0.116D+00 0.444D+00-0.111D+01 0.175D+01
 Coeff:      0.302D-05-0.424D-04 0.315D-03-0.649D-03 0.358D-02-0.146D-01
 Coeff:      0.348D-01-0.116D+00 0.444D+00-0.111D+01 0.175D+01
 Gap=     0.435 Goal=   None    Shift=    0.000
 Gap=     0.447 Goal=   None    Shift=    0.000
 RMSDP=2.66D-07 MaxDP=2.12D-06 DE=-2.66D-10 OVMax= 2.81D-06

 Cycle  12  Pass 1  IDiag  3:
 E=-0.269741942691610     Delta-E=       -0.000000000024 Rises=F Damp=F
 DIIS: error= 1.15D-07 at cycle  12 NSaved=  12.
 NSaved=12 IEnMin=12 EnMin=-0.269741942691610     IErMin=12 ErrMin= 1.15D-07
 ErrMax= 1.15D-07  0.00D+00 EMaxC= 1.00D-01 BMatC= 1.39D-12 BMatP= 1.29D-11
 IDIUse=1 WtCom= 1.00D+00 WtEn= 0.00D+00
 Coeff-Com: -0.155D-05 0.120D-04 0.304D-04-0.134D-03-0.625D-03 0.397D-02
 Coeff-Com: -0.104D-01 0.408D-01-0.181D+00 0.508D+00-0.110D+01 0.174D+01
 Coeff:     -0.155D-05 0.120D-04 0.304D-04-0.134D-03-0.625D-03 0.397D-02
 Coeff:     -0.104D-01 0.408D-01-0.181D+00 0.508D+00-0.110D+01 0.174D+01
 Gap=     0.435 Goal=   None    Shift=    0.000
 Gap=     0.447 Goal=   None    Shift=    0.000
 RMSDP=9.51D-08 MaxDP=8.05D-07 DE=-2.43D-11 OVMax= 9.06D-07

 Cycle  13  Pass 1  IDiag  3:
 E=-0.269741942694679     Delta-E=       -0.000000000003 Rises=F Damp=F
 DIIS: error= 2.21D-08 at cycle  13 NSaved=  13.
 NSaved=13 IEnMin=13 EnMin=-0.269741942694679     IErMin=13 ErrMin= 2.21D-08
 ErrMax= 2.21D-08  0.00D+00 EMaxC= 1.00D-01 BMatC= 9.33D-14 BMatP= 1.39D-12
 IDIUse=1 WtCom= 1.00D+00 WtEn= 0.00D+00
 Coeff-Com:  0.524D-06-0.309D-05-0.260D-04 0.808D-04 0.891D-04-0.910D-03
 Coeff-Com:  0.253D-02-0.108D-01 0.515D-01-0.154D+00 0.384D+00-0.854D+00
 Coeff-Com:  0.158D+01
 Coeff:      0.524D-06-0.309D-05-0.260D-04 0.808D-04 0.891D-04-0.910D-03
 Coeff:      0.253D-02-0.108D-01 0.515D-01-0.154D+00 0.384D+00-0.854D+00
 Coeff:      0.158D+01
 Gap=     0.435 Goal=   None    Shift=    0.000
 Gap=     0.447 Goal=   None    Shift=    0.000
 RMSDP=2.54D-08 MaxDP=1.73D-07 DE=-3.07D-12 OVMax= 2.80D-07

 Cycle  14  Pass 1  IDiag  3:
 E=-0.269741942694850     Delta-E=       -0.000000000000 Rises=F Damp=F
 DIIS: error= 5.87D-09 at cycle  14 NSaved=  14.
 NSaved=14 IEnMin=14 EnMin=-0.269741942694850     IErMin=14 ErrMin= 5.87D-09
 ErrMax= 5.87D-09  0.00D+00 EMaxC= 1.00D-01 BMatC= 5.48D-15 BMatP= 9.33D-14
 IDIUse=1 WtCom= 1.00D+00 WtEn= 0.00D+00
 Coeff-Com: -0.970D-07 0.691D-06 0.367D-05-0.117D-04-0.285D-04 0.201D-03
 Coeff-Com: -0.532D-03 0.227D-02-0.108D-01 0.334D-01-0.937D-01 0.256D+00
 Coeff-Com: -0.672D+00 0.148D+01
 Coeff:     -0.970D-07 0.691D-06 0.367D-05-0.117D-04-0.285D-04 0.201D-03
 Coeff:     -0.532D-03 0.227D-02-0.108D-01 0.334D-01-0.937D-01 0.256D+00
 Coeff:     -0.672D+00 0.148D+01
 Gap=     0.435 Goal=   None    Shift=    0.000
 Gap=     0.447 Goal=   None    Shift=    0.000
 RMSDP=5.15D-09 MaxDP=4.42D-08 DE=-1.71D-13 OVMax= 6.22D-08

 Cycle  15  Pass 2  IDiag  1:
 SCF Done:  E(UPM6) = -0.269741942695     A.U. after   15 cycles
            NFock= 14  Conv=0.52D-08     -V/T= 0.9981
 <Sx>= 0.0000 <Sy>= 0.0000 <Sz>= 0.5000 <S**2>= 0.7544 S= 0.5022
 <L.S>= 0.000000000000E+00
 KE=-1.399700229413D+02 PE=-3.340579774964D+02 EE= 2.191104720237D+02
 Annihilation of the first spin contaminant:
 S**2 before annihilation     0.7544,   after     0.7500
 Leave Link  502 at Fri Sep  6 11:36:24 2024, MaxMem=  1610612736 cpu:               0.4 elap:               0.1
 (Enter /Users/asuyarger/Applications/G16/g16/l601.exe)
 Copying SCF densities to generalized density rwf, IOpCl= 1 IROHF=0.

 **********************************************************************

            Population analysis using the SCF density.

 **********************************************************************

 Orbital symmetries:
 Alpha Orbitals:
       Occupied  (A) (A) (A) (A) (A) (A) (A) (A) (A) (A) (A) (A)
                 (A) (A) (A) (A) (A) (A) (A) (A) (A) (A)
       Virtual   (A) (A) (A) (A) (A) (A) (A) (A) (A)
 Beta  Orbitals:
       Occupied  (A) (A) (A) (A) (A) (A) (A) (A) (A) (A) (A) (A)
                 (A) (A) (A) (A) (A) (A) (A) (A) (A)
       Virtual   (A) (A) (A) (A) (A) (A) (A) (A) (A) (A)
 The electronic state is 2-A.
 Alpha  occ. eigenvalues --   -1.57203  -1.56735  -1.56678  -1.55936  -1.09290
 Alpha  occ. eigenvalues --   -0.90970  -0.80401  -0.73174  -0.71619  -0.70282
 Alpha  occ. eigenvalues --   -0.66558  -0.63596  -0.62607  -0.62520  -0.61996
 Alpha  occ. eigenvalues --   -0.61181  -0.58158  -0.57925  -0.56146  -0.51641
 Alpha  occ. eigenvalues --   -0.48414  -0.39665
 Alpha virt. eigenvalues --    0.03805   0.06384   0.07371   0.07773   0.10163
 Alpha virt. eigenvalues --    0.13479   0.16653   0.19382   0.19978
  Beta  occ. eigenvalues --   -1.57172  -1.56695  -1.56654  -1.55604  -1.08685
  Beta  occ. eigenvalues --   -0.90364  -0.79930  -0.73089  -0.71440  -0.70075
  Beta  occ. eigenvalues --   -0.66335  -0.63583  -0.62638  -0.62586  -0.62006
  Beta  occ. eigenvalues --   -0.60928  -0.58148  -0.57878  -0.55338  -0.51026
  Beta  occ. eigenvalues --   -0.47836
  Beta virt. eigenvalues --   -0.03121   0.04047   0.06870   0.07734   0.08167
  Beta virt. eigenvalues --    0.10486   0.14346   0.16846   0.20144   0.20802
     Alpha Molecular Orbital Coefficients:
                           1         2         3         4         5
                           O         O         O         O         O
     Eigenvalues --    -1.57203  -1.56735  -1.56678  -1.55936  -1.09290
   1 1   C  1S          0.07703   0.10158   0.15320   0.00250   0.32542
   2        1PX         0.06236   0.07832   0.02576  -0.01733  -0.19168
   3        1PY         0.14713  -0.11339   0.00304   0.05103   0.02371
   4        1PZ        -0.06744  -0.10160   0.13508  -0.04103  -0.05180
   5 2   F  1S         -0.11812   0.94078   0.16290  -0.17308  -0.03331
   6        1PX         0.00801  -0.02385  -0.00576   0.00169  -0.06407
   7        1PY         0.00778   0.04136   0.01255  -0.00351   0.04793
   8        1PZ        -0.00751   0.01249   0.01628  -0.00645   0.00638
   9 3   F  1S          0.91132   0.12718   0.18570   0.27202  -0.05960
  10        1PX        -0.02329   0.00148  -0.00531  -0.00642  -0.08720
  11        1PY        -0.03772  -0.01839  -0.01277  -0.00681  -0.06067
  12        1PZ         0.01549  -0.00475   0.01683   0.00158   0.01652
  13 4   C  1S         -0.02775   0.02232   0.04126   0.11524   0.60766
  14        1PX         0.03760   0.01328   0.00797  -0.06744   0.02110
  15        1PY         0.05620  -0.02252  -0.02123  -0.11477   0.15198
  16        1PZ        -0.02222  -0.00117   0.02891   0.05047   0.04189
  17 5   H  1S         -0.00258   0.01254   0.00879   0.03227   0.24916
  18 6   F  1S         -0.10384  -0.21526   0.92588  -0.20219  -0.05140
  19        1PX         0.00557   0.00678  -0.00221  -0.00210  -0.05146
  20        1PY         0.01236  -0.00951   0.00016   0.00376   0.00816
  21        1PZ        -0.00094   0.00172  -0.05208   0.00710  -0.08334
  22 7   F  1S         -0.31594   0.09184   0.17868   0.90117  -0.10553
  23        1PX        -0.00910   0.00489   0.00718   0.01794   0.06301
  24        1PY        -0.01466   0.00339   0.00953   0.03601   0.14863
  25        1PZ         0.00610  -0.00318  -0.00171  -0.01628  -0.04103
  26 8   C  1S         -0.00037  -0.00300   0.01280   0.02377   0.47542
  27        1PX         0.00754  -0.00035   0.00981   0.00319   0.11561
  28        1PY         0.01045  -0.00257  -0.01128  -0.03298  -0.14985
  29        1PZ        -0.00253  -0.00164   0.00346  -0.00202  -0.07211
  30 9   H  1S         -0.00094  -0.00209   0.00960   0.00903   0.16687
  31 10  H  1S          0.00163  -0.00074   0.00168   0.00431   0.16955
                           6         7         8         9        10
                           O         O         O         O         O
     Eigenvalues --    -0.90970  -0.80401  -0.73174  -0.71619  -0.70282
   1 1   C  1S          0.59920   0.23908  -0.02711   0.01568  -0.01742
   2        1PX         0.00124   0.21499  -0.29933   0.20741   0.16329
   3        1PY        -0.04025   0.10190  -0.09213  -0.41509   0.23219
   4        1PZ        -0.02569   0.16053   0.32219   0.11081   0.27559
   5 2   F  1S         -0.10974  -0.01592   0.04604  -0.09384   0.05227
   6        1PX        -0.15577   0.08675  -0.08806  -0.15314   0.39131
   7        1PY         0.22867   0.11913  -0.32878   0.20270  -0.10618
   8        1PZ         0.09188   0.11947   0.16224   0.35863   0.14497
   9 3   F  1S         -0.08508  -0.06165   0.08164   0.07024  -0.03288
  10        1PX        -0.10750  -0.02143   0.02063   0.47316   0.06832
  11        1PY        -0.21716  -0.16927   0.39081   0.03601  -0.00648
  12        1PZ         0.07778   0.18886   0.08363  -0.08203   0.43413
  13 4   C  1S          0.00970  -0.34348   0.01177   0.03228   0.12916
  14        1PX         0.32189  -0.00840   0.06965  -0.18591  -0.24064
  15        1PY        -0.16130   0.22359  -0.07887  -0.14054  -0.03808
  16        1PZ         0.00136   0.20734   0.32483  -0.01889  -0.06723
  17 5   H  1S         -0.00498  -0.27211  -0.19333   0.03485   0.10280
  18 6   F  1S         -0.08407  -0.07917  -0.07619  -0.02720  -0.06114
  19        1PX        -0.00987   0.06075  -0.31511   0.19086   0.17997
  20        1PY        -0.01985   0.05840  -0.07304  -0.39210   0.23347
  21        1PZ        -0.24921  -0.25579  -0.24176  -0.11422  -0.25491
  22 7   F  1S          0.00283   0.08042  -0.04005  -0.05012  -0.04069
  23        1PX         0.10289  -0.14552   0.18406   0.01165  -0.13949
  24        1PY        -0.05830  -0.14562   0.15012   0.16049   0.22324
  25        1PZ        -0.00045   0.21922   0.19093  -0.13170  -0.18423
  26 8   C  1S         -0.41885   0.36646  -0.04150   0.07230  -0.14144
  27        1PX         0.06132  -0.05978   0.07237  -0.12511   0.03029
  28        1PY        -0.00175   0.17625  -0.08733  -0.01284  -0.19767
  29        1PZ         0.02595   0.13515   0.17818  -0.01871  -0.11379
  30 9   H  1S         -0.17757   0.25922   0.06921   0.02403  -0.15393
  31 10  H  1S         -0.21171   0.20117  -0.13300   0.06893  -0.11178
                          11        12        13        14        15
                           O         O         O         O         O
     Eigenvalues --    -0.66558  -0.63596  -0.62607  -0.62520  -0.61996
   1 1   C  1S         -0.01977  -0.02524  -0.01488  -0.04693   0.00539
   2        1PX         0.08689   0.01104  -0.00385   0.02216  -0.00186
   3        1PY         0.03157   0.03427   0.02114   0.01458   0.00974
   4        1PZ        -0.16016  -0.00989   0.02670  -0.01732   0.01063
   5 2   F  1S         -0.01194   0.00430   0.00737   0.00281   0.00248
   6        1PX         0.13235  -0.07588   0.65488   0.22139  -0.24903
   7        1PY         0.23104   0.03876   0.17322  -0.01500  -0.34068
   8        1PZ        -0.20934  -0.28849   0.27615   0.20499   0.43179
   9 3   F  1S         -0.02162  -0.00291  -0.00012  -0.00148  -0.00116
  10        1PX         0.13729   0.42023   0.02569  -0.34678   0.10468
  11        1PY        -0.26631  -0.09351  -0.15386   0.15452  -0.26290
  12        1PZ        -0.14945   0.29702  -0.33474  -0.08655  -0.44226
  13 4   C  1S          0.05040   0.01104   0.01596   0.04915  -0.00681
  14        1PX        -0.13592   0.04089   0.02563   0.05029  -0.01097
  15        1PY        -0.07263  -0.25996  -0.04480  -0.09857  -0.01364
  16        1PZ         0.33928   0.02911  -0.01450   0.06334   0.00184
  17 5   H  1S         -0.18502  -0.01090   0.01603  -0.01517  -0.00495
  18 6   F  1S          0.03278   0.00307  -0.00459   0.00697  -0.00303
  19        1PX         0.04913  -0.05774  -0.48127   0.63895   0.09259
  20        1PY         0.07470   0.33200  -0.06591  -0.04810   0.58710
  21        1PZ         0.17125   0.03305  -0.00981   0.05111  -0.02578
  22 7   F  1S         -0.05765  -0.04247  -0.00558  -0.02069  -0.00278
  23        1PX         0.00842   0.53019   0.20953   0.53715  -0.04496
  24        1PY         0.48916  -0.11512  -0.13529  -0.06580   0.02416
  25        1PZ         0.35399  -0.24054  -0.14935   0.14772  -0.03903
  26 8   C  1S         -0.05364   0.07883   0.00923   0.03122  -0.00012
  27        1PX         0.05333  -0.10298   0.00178  -0.00008  -0.00926
  28        1PY        -0.25410   0.14498   0.03629   0.03777  -0.00301
  29        1PZ         0.19238   0.16346   0.02657   0.04707   0.02523
  30 9   H  1S          0.05409   0.16102   0.02867   0.04303   0.01729
  31 10  H  1S         -0.21388   0.06633   0.00957   0.01394  -0.00858
                          16        17        18        19        20
                           O         O         O         O         O
     Eigenvalues --    -0.61181  -0.58158  -0.57925  -0.56146  -0.51641
   1 1   C  1S         -0.05152   0.00557  -0.00758   0.01803   0.03997
   2        1PX        -0.03111   0.07100   0.04584   0.08720  -0.20740
   3        1PY         0.00092  -0.19428   0.19310   0.11505   0.02053
   4        1PZ         0.00524  -0.18964  -0.21743   0.05804  -0.01440
   5 2   F  1S          0.00843  -0.05258   0.01273   0.01254   0.01140
   6        1PX         0.07139  -0.04358  -0.09235  -0.09057   0.25448
   7        1PY        -0.09478   0.36275  -0.35634  -0.15458  -0.10916
   8        1PZ         0.07439   0.39342   0.37533  -0.07440  -0.00170
   9 3   F  1S          0.00381   0.01199  -0.05028  -0.01977   0.00665
  10        1PX         0.46027  -0.14548  -0.05523  -0.19860   0.18400
  11        1PY        -0.11174   0.34553  -0.35851  -0.19303   0.04426
  12        1PZ         0.12226   0.32503   0.37904  -0.02952   0.00608
  13 4   C  1S          0.08209  -0.00778   0.00440  -0.06095   0.05890
  14        1PX         0.13201  -0.00503   0.00888  -0.14286   0.33192
  15        1PY         0.29804  -0.04171  -0.04478  -0.25962  -0.22445
  16        1PZ        -0.10235  -0.04930   0.04672  -0.07413  -0.28319
  17 5   H  1S          0.10913   0.03666  -0.03529   0.04872   0.25579
  18 6   F  1S          0.00504   0.03807   0.04234  -0.00914   0.00019
  19        1PX         0.00859  -0.22548  -0.09606  -0.20771   0.14658
  20        1PY        -0.02263   0.39273  -0.37079  -0.09190  -0.01912
  21        1PZ         0.05020   0.32465   0.38596  -0.12581  -0.00588
  22 7   F  1S          0.05912  -0.00278  -0.00855  -0.03639   0.00612
  23        1PX         0.18012  -0.03037   0.03665   0.20351  -0.31151
  24        1PY        -0.25278   0.11838   0.01886   0.35802   0.21788
  25        1PZ         0.58022   0.18661  -0.09927   0.25973   0.23883
  26 8   C  1S         -0.04924   0.00018   0.00773  -0.00868  -0.05668
  27        1PX         0.15828  -0.07250   0.02391  -0.34288  -0.09077
  28        1PY        -0.06981   0.05762  -0.02573   0.24120   0.36859
  29        1PZ        -0.28761  -0.05286   0.16192  -0.34815   0.31728
  30 9   H  1S         -0.21709  -0.01774   0.10157  -0.18331   0.24425
  31 10  H  1S          0.01265   0.06981  -0.08064   0.35187   0.03602
                          21        22        23        24        25
                           O         O         V         V         V
     Eigenvalues --    -0.48414  -0.39665   0.03805   0.06384   0.07371
   1 1   C  1S          0.10263  -0.11668   0.62658  -0.10301   0.02931
   2        1PX        -0.29307   0.19903   0.03706  -0.02040   0.72322
   3        1PY        -0.00579   0.00409   0.07585   0.50801  -0.00414
   4        1PZ        -0.10892   0.06059  -0.03794  -0.29826   0.05169
   5 2   F  1S          0.00739  -0.00178  -0.03502   0.05178  -0.05174
   6        1PX         0.18595  -0.10018   0.12053  -0.14611   0.04282
   7        1PY        -0.03631   0.05408  -0.26095   0.17678  -0.24264
   8        1PZ         0.02932   0.00471  -0.10537   0.15795  -0.10978
   9 3   F  1S          0.00703  -0.00458  -0.05347  -0.06703  -0.04728
  10        1PX         0.18861  -0.05102   0.16320   0.17162   0.02135
  11        1PY         0.04415  -0.03020   0.32641   0.23067   0.22399
  12        1PZ         0.02701  -0.01462  -0.14726  -0.08838  -0.10223
  13 4   C  1S          0.00231  -0.02217  -0.22875  -0.10811   0.15809
  14        1PX         0.25712  -0.08842  -0.37920   0.17039   0.50131
  15        1PY        -0.03075  -0.01267   0.09016   0.38349  -0.02063
  16        1PZ         0.39318  -0.05440  -0.15687  -0.13002   0.10778
  17 5   H  1S         -0.33972   0.04250   0.02185  -0.04099   0.00292
  18 6   F  1S          0.01036  -0.00320  -0.03469   0.04858  -0.01835
  19        1PX         0.17994  -0.06061  -0.00708  -0.01123  -0.09261
  20        1PY         0.01547  -0.01213  -0.01163  -0.08236   0.00209
  21        1PZ         0.18453  -0.05270   0.30513  -0.25238   0.10309
  22 7   F  1S         -0.00273   0.00626   0.01055   0.07337   0.01612
  23        1PX        -0.15556   0.09354   0.10154   0.19110  -0.02742
  24        1PY         0.13693   0.20790   0.06914   0.32111   0.05847
  25        1PZ        -0.26890  -0.03360  -0.01069  -0.14344  -0.03862
  26 8   C  1S          0.00531   0.00728  -0.00160  -0.04395   0.04465
  27        1PX         0.07860   0.80057   0.04806  -0.12730  -0.02817
  28        1PY         0.21970   0.45960   0.03126   0.01459  -0.11882
  29        1PZ        -0.35473  -0.02493  -0.00276   0.03305  -0.02015
  30 9   H  1S         -0.23599   0.01232   0.02166   0.01547  -0.00290
  31 10  H  1S          0.24792  -0.01998  -0.05699  -0.04633   0.05932
                          26        27        28        29        30
                           V         V         V         V         V
     Eigenvalues --     0.07773   0.10163   0.13479   0.16653   0.19382
   1 1   C  1S          0.00952  -0.00894  -0.00465  -0.00611   0.01492
   2        1PX        -0.05056  -0.08380   0.12415  -0.06593  -0.01370
   3        1PY         0.37366  -0.45847  -0.09767   0.00073  -0.02524
   4        1PZ         0.66665   0.23556  -0.12300  -0.07532   0.01188
   5 2   F  1S          0.07572  -0.03261  -0.02141  -0.00080  -0.00114
   6        1PX        -0.18991   0.08958   0.02994   0.01076   0.00361
   7        1PY         0.29683  -0.08335  -0.08203   0.00158  -0.00480
   8        1PZ         0.05560  -0.09617  -0.02782   0.01197  -0.00516
   9 3   F  1S         -0.00769   0.06505  -0.00203  -0.00102   0.00305
  10        1PX         0.02857  -0.13532  -0.01180   0.01062  -0.00335
  11        1PY        -0.01884  -0.23425   0.02069  -0.00007  -0.00853
  12        1PZ        -0.11258   0.10286   0.01141   0.01080   0.00309
  13 4   C  1S          0.07364  -0.18198   0.29664  -0.48317   0.09452
  14        1PX         0.05883   0.20830  -0.24659   0.10174  -0.05710
  15        1PY         0.05400   0.50025   0.36634  -0.07037   0.09057
  16        1PZ         0.09585  -0.18155   0.43118   0.35658  -0.18765
  17 5   H  1S          0.12956   0.01996   0.23746   0.67142  -0.20570
  18 6   F  1S         -0.09366  -0.02985   0.01498   0.00821  -0.00153
  19        1PX         0.03060   0.01441  -0.01549   0.01299   0.00086
  20        1PY        -0.05105   0.06331   0.01238  -0.00001   0.00170
  21        1PZ         0.43954   0.12987  -0.06231  -0.03498   0.00882
  22 7   F  1S          0.00075   0.08830  -0.00950   0.00027   0.00925
  23        1PX        -0.00778   0.19973  -0.01147   0.01773   0.02457
  24        1PY        -0.01118   0.36964  -0.10190   0.05385   0.01733
  25        1PZ        -0.01191  -0.16927  -0.01310  -0.05326  -0.00142
  26 8   C  1S         -0.08799  -0.01455  -0.28753   0.10507  -0.25941
  27        1PX        -0.08057  -0.10251  -0.23185   0.12840   0.16756
  28        1PY         0.07451   0.00358   0.44782  -0.22627  -0.23645
  29        1PZ         0.04223   0.00005   0.23318   0.09879   0.46850
  30 9   H  1S         -0.01901   0.03525  -0.13485  -0.17853  -0.21275
  31 10  H  1S          0.02945  -0.08304  -0.01501   0.18672   0.69542
                          31
                           V
     Eigenvalues --     0.19978
   1 1   C  1S         -0.00819
   2        1PX         0.00102
   3        1PY        -0.01053
   4        1PZ        -0.02976
   5 2   F  1S         -0.00175
   6        1PX         0.00254
   7        1PY        -0.00527
   8        1PZ         0.00019
   9 3   F  1S         -0.00077
  10        1PX         0.00229
  11        1PY         0.00023
  12        1PZ         0.00315
  13 4   C  1S         -0.02734
  14        1PX        -0.03814
  15        1PY         0.06174
  16        1PZ         0.13754
  17 5   H  1S          0.10086
  18 6   F  1S          0.00183
  19        1PX         0.00689
  20        1PY        -0.00231
  21        1PZ        -0.01514
  22 7   F  1S         -0.00398
  23        1PX         0.00194
  24        1PY        -0.01663
  25        1PZ        -0.01127
  26 8   C  1S         -0.49766
  27        1PX         0.07344
  28        1PY        -0.13793
  29        1PZ        -0.34136
  30 9   H  1S          0.71264
  31 10  H  1S          0.25808
     Beta Molecular Orbital Coefficients:
                           1         2         3         4         5
                           O         O         O         O         O
     Eigenvalues --    -1.57172  -1.56695  -1.56654  -1.55604  -1.08685
   1 1   C  1S          0.08525   0.06085   0.16903   0.00861   0.33322
   2        1PX         0.06434   0.06899   0.04230  -0.01837  -0.19296
   3        1PY         0.14688  -0.11413  -0.03275   0.03755   0.02369
   4        1PZ        -0.06778  -0.12896   0.11221  -0.03073  -0.05266
   5 2   F  1S         -0.09656   0.87919   0.39516  -0.13072  -0.03483
   6        1PX         0.00721  -0.02191  -0.01158   0.00014  -0.06708
   7        1PY         0.00915   0.03712   0.02184  -0.00228   0.05066
   8        1PZ        -0.00697   0.00851   0.01944  -0.00462   0.00701
   9 3   F  1S          0.93734   0.05953   0.15718   0.22003  -0.06042
  10        1PX        -0.02382   0.00320  -0.00347  -0.00504  -0.08949
  11        1PY        -0.03910  -0.01406  -0.01481  -0.00531  -0.06324
  12        1PZ         0.01602  -0.00890   0.01449   0.00132   0.01721
  13 4   C  1S         -0.01782   0.01102   0.03876   0.12019   0.61668
  14        1PX         0.03359   0.01115   0.01378  -0.06926   0.02614
  15        1PY         0.04689  -0.01652  -0.02066  -0.12057   0.14851
  16        1PZ        -0.01773  -0.00821   0.02534   0.05376   0.04076
  17 5   H  1S          0.00025   0.00977   0.00943   0.03323   0.25319
  18 6   F  1S         -0.08907  -0.42463   0.86366  -0.14550  -0.05205
  19        1PX         0.00554   0.00704  -0.00062  -0.00247  -0.05256
  20        1PY         0.01230  -0.00954  -0.00281   0.00263   0.00805
  21        1PZ        -0.00231   0.01400  -0.05052   0.00413  -0.08647
  22 7   F  1S         -0.24405   0.04166   0.14801   0.93215  -0.10685
  23        1PX        -0.00739   0.00298   0.00724   0.01873   0.06628
  24        1PY        -0.01135   0.00079   0.00803   0.03597   0.15323
  25        1PZ         0.00477  -0.00260  -0.00154  -0.01662  -0.04313
  26 8   C  1S          0.00156  -0.00607   0.00999   0.02435   0.45451
  27        1PX         0.00717  -0.00273   0.00846   0.00390   0.11144
  28        1PY         0.00714   0.00042  -0.00976  -0.03348  -0.14899
  29        1PZ        -0.00249  -0.00232   0.00315  -0.00167  -0.07044
  30 9   H  1S         -0.00005  -0.00440   0.00829   0.00969   0.16458
  31 10  H  1S          0.00196  -0.00119   0.00112   0.00433   0.16707
                           6         7         8         9        10
                           O         O         O         O         O
     Eigenvalues --    -0.90364  -0.79930  -0.73089  -0.71440  -0.70075
   1 1   C  1S          0.59945   0.22063  -0.02551   0.01207  -0.02020
   2        1PX         0.02036   0.21223  -0.29527   0.21020   0.15355
   3        1PY        -0.04098   0.11198  -0.10673  -0.41723   0.21726
   4        1PZ        -0.01933   0.16759   0.32365   0.09840   0.28142
   5 2   F  1S         -0.11104  -0.00997   0.04253  -0.09494   0.05099
   6        1PX        -0.15598   0.10242  -0.09969  -0.15250   0.38332
   7        1PY         0.23709   0.10615  -0.32425   0.20954  -0.11534
   8        1PZ         0.09746   0.11773   0.17311   0.35713   0.15907
   9 3   F  1S         -0.08577  -0.06009   0.08404   0.06923  -0.02823
  10        1PX        -0.10499  -0.01964   0.03095   0.47649   0.07817
  11        1PY        -0.22463  -0.16147   0.39422   0.02955   0.01246
  12        1PZ         0.08217   0.19533   0.07876  -0.09306   0.43599
  13 4   C  1S         -0.01704  -0.33246   0.01328   0.02698   0.13595
  14        1PX         0.32344  -0.02817   0.07088  -0.18280  -0.23533
  15        1PY        -0.16043   0.23886  -0.08549  -0.12795  -0.05489
  16        1PZ         0.00520   0.21364   0.32092  -0.02890  -0.08495
  17 5   H  1S         -0.01904  -0.26976  -0.18957   0.03834   0.11628
  18 6   F  1S         -0.08556  -0.07819  -0.07656  -0.02386  -0.06171
  19        1PX        -0.00525   0.06135  -0.31319   0.19993   0.17886
  20        1PY        -0.02085   0.06571  -0.08657  -0.39950   0.22313
  21        1PZ        -0.25731  -0.25313  -0.24499  -0.10105  -0.25883
  22 7   F  1S          0.00744   0.07804  -0.04084  -0.04529  -0.04195
  23        1PX         0.10035  -0.15659   0.19299   0.00262  -0.13272
  24        1PY        -0.06960  -0.12913   0.14956   0.14345   0.21236
  25        1PZ         0.00539   0.22627   0.19157  -0.13459  -0.21589
  26 8   C  1S         -0.40236   0.37218  -0.04209   0.08158  -0.14631
  27        1PX         0.04765  -0.06149   0.06340  -0.09071   0.04145
  28        1PY         0.00411   0.15476  -0.07956   0.01367  -0.16999
  29        1PZ         0.03030   0.12468   0.16129  -0.02237  -0.11072
  30 9   H  1S         -0.17554   0.26793   0.06316   0.02973  -0.16067
  31 10  H  1S         -0.21048   0.21115  -0.12855   0.08023  -0.11381
                          11        12        13        14        15
                           O         O         O         O         O
     Eigenvalues --    -0.66335  -0.63583  -0.62638  -0.62586  -0.62006
   1 1   C  1S         -0.02439  -0.03228  -0.03472  -0.03463   0.00322
   2        1PX         0.08746   0.01547   0.00790   0.02192  -0.00154
   3        1PY         0.03109   0.03099   0.02532   0.00214   0.00994
   4        1PZ        -0.14306  -0.00939   0.01494  -0.02674   0.00917
   5 2   F  1S         -0.01028   0.00418   0.00771  -0.00096   0.00258
   6        1PX         0.15387  -0.03927   0.68033  -0.12715  -0.24333
   7        1PY         0.22516   0.04870   0.14235  -0.10166  -0.34071
   8        1PZ        -0.19567  -0.27169   0.35439   0.04818   0.43336
   9 3   F  1S         -0.01975  -0.00230  -0.00107  -0.00125  -0.00120
  10        1PX         0.15698   0.43281  -0.17549  -0.31175   0.11495
  11        1PY        -0.25674  -0.09820  -0.05117   0.21131  -0.26559
  12        1PZ        -0.13205   0.28310  -0.34497   0.09365  -0.43925
  13 4   C  1S          0.06464   0.01129   0.03541   0.03691  -0.00439
  14        1PX        -0.14157   0.04767   0.04401   0.03228  -0.00764
  15        1PY        -0.07750  -0.23855  -0.06603  -0.04274  -0.01185
  16        1PZ         0.33454   0.03759   0.01638   0.05270   0.00340
  17 5   H  1S         -0.17453  -0.01648   0.00653  -0.01366  -0.00474
  18 6   F  1S          0.02964   0.00350  -0.00058   0.00832  -0.00256
  19        1PX         0.05871  -0.03988  -0.10266   0.79272   0.09995
  20        1PY         0.07467   0.31414  -0.10391  -0.02634   0.58875
  21        1PZ         0.15849   0.03789   0.01542   0.04808  -0.02232
  22 7   F  1S         -0.05893  -0.03890  -0.01154  -0.01116  -0.00247
  23        1PX         0.00940   0.58077   0.42335   0.35287  -0.02854
  24        1PY         0.51003  -0.14657  -0.15181   0.00069   0.01982
  25        1PZ         0.37253  -0.19855  -0.03322   0.23290  -0.02602
  26 8   C  1S         -0.06724   0.08423   0.02052   0.01873  -0.00006
  27        1PX         0.07929  -0.08164  -0.00347   0.00169  -0.00324
  28        1PY        -0.23274   0.13460   0.03380   0.00707  -0.00166
  29        1PZ         0.15914   0.13887   0.02771   0.00575   0.02081
  30 9   H  1S          0.03030   0.15490   0.03348   0.00742   0.01521
  31 10  H  1S         -0.21877   0.07226   0.01635   0.01049  -0.00839
                          16        17        18        19        20
                           O         O         O         O         O
     Eigenvalues --    -0.60928  -0.58148  -0.57878  -0.55338  -0.51026
   1 1   C  1S         -0.04480   0.00380   0.00534   0.00972   0.04190
   2        1PX        -0.03452   0.07165  -0.04905   0.11172  -0.20621
   3        1PY         0.00966  -0.19396  -0.20464   0.08937   0.02257
   4        1PZ         0.00247  -0.19901   0.20946   0.06601  -0.01763
   5 2   F  1S          0.00930  -0.05314  -0.01474   0.00744   0.01082
   6        1PX         0.07382  -0.04718   0.09834  -0.10064   0.24969
   7        1PY        -0.10717   0.35988   0.36934  -0.11244  -0.11234
   8        1PZ         0.09548   0.40660  -0.35160  -0.07371  -0.00158
   9 3   F  1S          0.00173   0.01127   0.05174  -0.01635   0.00600
  10        1PX         0.42665  -0.14171   0.07063  -0.20718   0.17087
  11        1PY        -0.10870   0.34337   0.37921  -0.15733   0.04256
  12        1PZ         0.13710   0.33957  -0.36298  -0.03031   0.00906
  13 4   C  1S          0.08492  -0.00761   0.00220  -0.07042   0.04593
  14        1PX         0.13277  -0.00075   0.00423  -0.16018   0.34808
  15        1PY         0.31389  -0.04009   0.06607  -0.28036  -0.24595
  16        1PZ        -0.14179  -0.04630  -0.06267  -0.10821  -0.29083
  17 5   H  1S          0.13741   0.03316   0.04876   0.07052   0.25418
  18 6   F  1S          0.00558   0.03985  -0.04060  -0.00978   0.00046
  19        1PX        -0.03381  -0.21779   0.09941  -0.21617   0.14041
  20        1PY        -0.05619   0.38495   0.38334  -0.05452  -0.01871
  21        1PZ         0.05148   0.34251  -0.37075  -0.13861  -0.00412
  22 7   F  1S          0.06329  -0.00237   0.01299  -0.03642   0.00517
  23        1PX         0.12093  -0.03830  -0.05184   0.19334  -0.29763
  24        1PY        -0.25261   0.10414  -0.04357   0.37174   0.19069
  25        1PZ         0.58975   0.15542   0.11019   0.25109   0.22561
  26 8   C  1S         -0.05899   0.00303  -0.00994  -0.00597  -0.04920
  27        1PX         0.10661  -0.04777  -0.00939  -0.27767  -0.13668
  28        1PY        -0.08320   0.05254   0.01539   0.28219   0.32690
  29        1PZ        -0.28615  -0.02369  -0.14336  -0.33613   0.33700
  30 9   H  1S         -0.23324   0.00022  -0.09825  -0.18444   0.27839
  31 10  H  1S          0.01716   0.05294   0.06721   0.37328   0.02754
                          21        22        23        24        25
                           O         V         V         V         V
     Eigenvalues --    -0.47836  -0.03121   0.04047   0.06870   0.07734
   1 1   C  1S          0.11193  -0.18741   0.60573   0.11919  -0.02800
   2        1PX        -0.31434   0.17265   0.08990   0.26316   0.62947
   3        1PY        -0.00241   0.07307   0.12685  -0.42610  -0.08167
   4        1PZ        -0.11065   0.06205  -0.02962   0.43004  -0.36836
   5 2   F  1S          0.00822   0.01264  -0.03134  -0.05437  -0.06925
   6        1PX         0.20046  -0.08567   0.10238   0.11958   0.09562
   7        1PY        -0.04607   0.08662  -0.24796  -0.20140  -0.30569
   8        1PZ         0.02705   0.03478  -0.09651  -0.18056  -0.08106
   9 3   F  1S          0.00733  -0.00780  -0.06173   0.04582  -0.04856
  10        1PX         0.19324  -0.00539   0.17785  -0.14722   0.03230
  11        1PY         0.04911  -0.01000   0.35422  -0.14178   0.23541
  12        1PZ         0.02748  -0.01479  -0.16361   0.02545  -0.04151
  13 4   C  1S          0.00864  -0.00727  -0.22803   0.14917   0.11541
  14        1PX         0.29143   0.15352  -0.30324   0.01798   0.40475
  15        1PY        -0.03184   0.10597   0.13208  -0.29338   0.01122
  16        1PZ         0.37806  -0.03054  -0.16256   0.15865   0.05207
  17 5   H  1S         -0.32481   0.01882   0.02129   0.06916  -0.07047
  18 6   F  1S          0.01020   0.00089  -0.03534  -0.07115   0.04550
  19        1PX         0.18260  -0.02593  -0.01349  -0.01625  -0.09622
  20        1PY         0.01670  -0.02058  -0.02025   0.06936   0.01038
  21        1PZ         0.18109  -0.05267   0.30404   0.36379  -0.20925
  22 7   F  1S         -0.00084   0.03643   0.02246  -0.05326   0.01911
  23        1PX        -0.16636   0.08287   0.12199  -0.16197  -0.00163
  24        1PY         0.11091   0.23951   0.12746  -0.23773   0.07194
  25        1PZ        -0.23836  -0.08513  -0.03578   0.09865  -0.03874
  26 8   C  1S          0.00160   0.00191  -0.00148   0.03197   0.05948
  27        1PX        -0.03261   0.76434   0.11327   0.18041  -0.08474
  28        1PY         0.17176   0.45946   0.07661   0.02177  -0.16338
  29        1PZ        -0.34945  -0.03253  -0.00697  -0.02843  -0.02135
  30 9   H  1S         -0.25544   0.00474   0.02092  -0.01594   0.00653
  31 10  H  1S          0.27758  -0.00658  -0.05867   0.05996   0.03188
                          26        27        28        29        30
                           V         V         V         V         V
     Eigenvalues --     0.08167   0.10486   0.14346   0.16846   0.20144
   1 1   C  1S         -0.04191  -0.02370  -0.00325  -0.00667   0.01525
   2        1PX         0.24919  -0.04673   0.08553  -0.07167  -0.01574
   3        1PY         0.51745  -0.37380  -0.08231   0.00868  -0.02423
   4        1PZ         0.45811   0.25375  -0.11744  -0.06523   0.00780
   5 2   F  1S          0.06370  -0.02426  -0.01740   0.00054  -0.00121
   6        1PX        -0.20115   0.06283   0.02557   0.00906   0.00411
   7        1PY         0.22495  -0.05588  -0.06569   0.00668  -0.00501
   8        1PZ         0.06620  -0.08070  -0.02022   0.01366  -0.00455
   9 3   F  1S         -0.05044   0.05491  -0.00146  -0.00108   0.00283
  10        1PX         0.08903  -0.11669  -0.00788   0.01149  -0.00264
  11        1PY         0.15438  -0.19994   0.01559  -0.00073  -0.00751
  12        1PZ        -0.16499   0.08092   0.01217   0.00953   0.00325
  13 4   C  1S          0.13267  -0.16835   0.20822  -0.51885   0.07409
  14        1PX         0.29798   0.27292  -0.22911   0.13678  -0.05244
  15        1PY         0.05762   0.51563   0.35328  -0.12148   0.08892
  16        1PZ         0.12065  -0.17648   0.46517   0.30647  -0.17489
  17 5   H  1S          0.09335   0.01942   0.34178   0.64088  -0.17098
  18 6   F  1S         -0.06496  -0.03184   0.01410   0.00696  -0.00103
  19        1PX        -0.01663   0.00988  -0.00961   0.01374   0.00110
  20        1PY        -0.07241   0.05166   0.01027  -0.00104   0.00167
  21        1PZ         0.29796   0.13630  -0.05808  -0.03025   0.00719
  22 7   F  1S          0.01230   0.09338  -0.00732   0.00061   0.00966
  23        1PX        -0.00313   0.20578  -0.00366   0.01693   0.02557
  24        1PY         0.03172   0.38769  -0.07766   0.06128   0.02127
  25        1PZ        -0.03502  -0.17865  -0.02341  -0.05006  -0.00419
  26 8   C  1S         -0.06257  -0.01750  -0.27292   0.15258  -0.22511
  27        1PX        -0.22506  -0.22117  -0.21792   0.15215   0.17125
  28        1PY        -0.06463  -0.05968   0.44378  -0.29494  -0.24034
  29        1PZ         0.04228   0.00467   0.24705   0.03812   0.52423
  30 9   H  1S         -0.01842   0.03369  -0.14741  -0.13112  -0.26714
  31 10  H  1S          0.05228  -0.07757  -0.00520   0.15116   0.66147
                          31
                           V
     Eigenvalues --     0.20802
   1 1   C  1S         -0.00441
   2        1PX        -0.00352
   3        1PY        -0.01065
   4        1PZ        -0.02644
   5 2   F  1S         -0.00144
   6        1PX         0.00254
   7        1PY        -0.00474
   8        1PZ        -0.00005
   9 3   F  1S         -0.00052
  10        1PX         0.00258
  11        1PY        -0.00020
  12        1PZ         0.00306
  13 4   C  1S         -0.01223
  14        1PX        -0.04694
  15        1PY         0.07517
  16        1PZ         0.11870
  17 5   H  1S          0.07545
  18 6   F  1S          0.00138
  19        1PX         0.00707
  20        1PY        -0.00213
  21        1PZ        -0.01224
  22 7   F  1S         -0.00279
  23        1PX         0.00498
  24        1PY        -0.01253
  25        1PZ        -0.01147
  26 8   C  1S         -0.53552
  27        1PX         0.08687
  28        1PY        -0.15554
  29        1PZ        -0.31748
  30 9   H  1S          0.67807
  31 10  H  1S          0.30282
     Alpha Density Matrix:
                           1         2         3         4         5
   1 1   C  1S          0.59541
   2        1PX        -0.04640   0.44564
   3        1PY        -0.00289   0.00286   0.37605
   4        1PZ        -0.01415   0.02188   0.00154   0.38520
   5 2   F  1S          0.02768   0.04346  -0.06924  -0.02874   0.98615
   6        1PX        -0.08905  -0.04347   0.18033   0.06881   0.03196
   7        1PY         0.18491   0.20701  -0.22833  -0.13295  -0.05781
   8        1PZ         0.08415   0.08545  -0.14042   0.03192  -0.02549
   9 3   F  1S          0.02857   0.04010   0.07048  -0.03016   0.00181
  10        1PX        -0.08661  -0.02577  -0.17341   0.06856  -0.00889
  11        1PY        -0.18902  -0.19266  -0.23956   0.13999   0.00530
  12        1PZ         0.08825   0.07985   0.14609   0.02643   0.00627
  13 4   C  1S          0.12203  -0.18695  -0.00660  -0.05716   0.00028
  14        1PX         0.24177  -0.28802  -0.00820  -0.10089   0.00084
  15        1PY        -0.01200   0.01511   0.04620   0.00555   0.00245
  16        1PZ         0.08731  -0.11789  -0.00209   0.01478   0.00318
  17 5   H  1S         -0.00996   0.01633  -0.00152  -0.01740  -0.00056
  18 6   F  1S          0.02806   0.00697   0.00062   0.08613   0.00177
  19        1PX         0.00588   0.07255  -0.00040  -0.02336  -0.00661
  20        1PY        -0.00019  -0.00155   0.09207  -0.00456   0.01016
  21        1PZ        -0.22399  -0.05234  -0.00520  -0.40349  -0.00134
  22 7   F  1S          0.00104  -0.00179   0.00146  -0.00123   0.00003
  23        1PX        -0.04157   0.03924  -0.01091   0.02010  -0.00086
  24        1PY        -0.00909   0.00857  -0.00421   0.00658  -0.00043
  25        1PZ        -0.00880   0.00872  -0.00103   0.00068   0.00009
  26 8   C  1S         -0.00502   0.00078   0.00889   0.00742   0.00348
  27        1PX        -0.04474   0.04280   0.02628   0.02452   0.00503
  28        1PY        -0.01218   0.01552   0.00000  -0.00209  -0.00244
  29        1PZ        -0.00277   0.00182  -0.00149   0.00302  -0.00104
  30 9   H  1S         -0.00410   0.00493   0.00285   0.00366   0.00037
  31 10  H  1S          0.02098  -0.02377  -0.00230  -0.00748  -0.00039
                           6         7         8         9        10
   6        1PX         0.91717
   7        1PY         0.13398   0.73995
   8        1PZ         0.06038  -0.10890   0.93861
   9 3   F  1S         -0.00855  -0.00603   0.00642   0.98611
  10        1PX         0.02228  -0.00332  -0.02264   0.03026   0.92406
  11        1PY         0.00159   0.08647   0.00160   0.05866  -0.12858
  12        1PZ        -0.02186  -0.00467   0.00358  -0.02616   0.05854
  13 4   C  1S          0.03134  -0.01384   0.00326   0.00020   0.03479
  14        1PX         0.04824  -0.02840  -0.00344   0.00150   0.04435
  15        1PY         0.00079   0.00732   0.00326  -0.00213  -0.00871
  16        1PZ         0.01334  -0.00075  -0.00022   0.00246   0.01866
  17 5   H  1S          0.00022  -0.00518   0.00130   0.00013  -0.00284
  18 6   F  1S         -0.00358   0.00444  -0.01070   0.00180  -0.00357
  19        1PX         0.00800  -0.03147  -0.01004  -0.00623   0.00580
  20        1PY        -0.02646   0.03348   0.02130  -0.01054   0.02617
  21        1PZ        -0.00398   0.02451   0.07012  -0.00100  -0.00397
  22 7   F  1S          0.00125   0.00008  -0.00048   0.00046  -0.00280
  23        1PX        -0.00245   0.00418  -0.00326   0.00381  -0.02178
  24        1PY         0.00329   0.00114  -0.00423   0.00364  -0.01898
  25        1PZ        -0.00411   0.00157   0.00194  -0.00118   0.00505
  26 8   C  1S         -0.01387   0.01547   0.00467  -0.00072   0.00316
  27        1PX        -0.02454   0.02555   0.00957  -0.00204  -0.00067
  28        1PY         0.00751  -0.00984  -0.00188  -0.00133   0.00049
  29        1PZ         0.00517  -0.00456  -0.00228   0.00032  -0.00194
  30 9   H  1S         -0.00207   0.00275   0.00112   0.00036  -0.00285
  31 10  H  1S          0.00586  -0.00478  -0.00091   0.00052   0.00349
                          11        12        13        14        15
  11        1PY         0.73435
  12        1PZ         0.11312   0.93653
  13 4   C  1S          0.01760   0.00156   0.54132
  14        1PX         0.02671  -0.00233   0.01266   0.45314
  15        1PY        -0.00189  -0.00421   0.00285  -0.02317   0.44004
  16        1PZ         0.00580  -0.00273  -0.04119   0.00539   0.02751
  17 5   H  1S          0.00214   0.00279   0.27037  -0.01563  -0.03051
  18 6   F  1S         -0.00486  -0.01042   0.00140   0.00233  -0.00077
  19        1PX         0.02992  -0.00953   0.02316   0.03602   0.00026
  20        1PY         0.03595  -0.02118  -0.00052   0.00145  -0.00079
  21        1PZ        -0.02440   0.07040   0.01781   0.04223   0.00320
  22 7   F  1S         -0.00300   0.00078   0.02578  -0.03702  -0.07006
  23        1PX        -0.02400   0.00748   0.09484  -0.02461  -0.17940
  24        1PY        -0.02109   0.00584   0.16353  -0.16440  -0.27190
  25        1PZ         0.00561  -0.00137  -0.06380   0.07738   0.14237
  26 8   C  1S         -0.00055  -0.00345   0.13863  -0.12268   0.19690
  27        1PX         0.00067  -0.00507   0.10595   0.02226   0.17380
  28        1PY         0.00402   0.00027  -0.20091   0.17849  -0.16673
  29        1PZ        -0.00214   0.00110  -0.07203   0.06210  -0.11497
  30 9   H  1S         -0.00129   0.00037   0.00823   0.00075  -0.01245
  31 10  H  1S          0.00330   0.00062  -0.00871  -0.00104   0.00380
                          16        17        18        19        20
  16        1PZ         0.53753
  17 5   H  1S         -0.40529   0.42097
  18 6   F  1S         -0.00351   0.00597   0.98614
  19        1PX         0.00835  -0.00985   0.00201   0.98965
  20        1PY        -0.00107  -0.00012   0.00057   0.00004   0.98630
  21        1PZ         0.02847  -0.03523   0.07104  -0.00686  -0.00252
  22 7   F  1S          0.03170   0.00525  -0.00003   0.00097   0.00067
  23        1PX         0.08371  -0.00161  -0.00097  -0.00276   0.00404
  24        1PY         0.14475  -0.00117  -0.00100   0.00235   0.00435
  25        1PZ        -0.01983   0.03910   0.00037  -0.00189  -0.00161
  26 8   C  1S          0.10129   0.00436  -0.00182   0.00437  -0.00445
  27        1PX         0.05866   0.00220  -0.00073  -0.00567  -0.00473
  28        1PY        -0.12469   0.00139   0.00032  -0.00192  -0.00007
  29        1PZ         0.00109   0.00510  -0.00108   0.00147   0.00041
  30 9   H  1S         -0.00219   0.03818   0.00108  -0.00437   0.00201
  31 10  H  1S         -0.00436  -0.00777   0.00093  -0.00017   0.00176
                          21        22        23        24        25
  21        1PZ         0.61710
  22 7   F  1S          0.00111   0.98626
  23        1PX        -0.00273  -0.03261   0.91141
  24        1PY         0.00595  -0.05907  -0.14321   0.73807
  25        1PZ        -0.00458   0.02607   0.06201   0.11286   0.94589
  26 8   C  1S          0.00587   0.00153   0.01418  -0.02273  -0.01225
  27        1PX        -0.00548   0.01490   0.02933   0.04397  -0.03228
  28        1PY        -0.00684   0.00610   0.00587   0.05923  -0.00874
  29        1PZ         0.00137  -0.00561  -0.01619  -0.00414   0.00958
  30 9   H  1S         -0.00061  -0.00084  -0.00696  -0.00813   0.00453
  31 10  H  1S          0.00079   0.00476   0.01202   0.02703  -0.00503
                          26        27        28        29        30
  26 8   C  1S          0.57944
  27        1PX        -0.01298   0.85998
  28        1PY         0.03516   0.18601   0.65245
  29        1PZ         0.01438  -0.00487  -0.02431   0.59656
  30 9   H  1S          0.27914  -0.02210   0.06802   0.39231   0.39451
  31 10  H  1S          0.28151  -0.17056   0.25661  -0.25133   0.00095
                          31
  31 10  H  1S          0.39802
     Beta Density Matrix:
                           1         2         3         4         5
   1 1   C  1S          0.58035
   2        1PX        -0.02648   0.41964
   3        1PY        -0.00170   0.00036   0.37530
   4        1PZ        -0.00784   0.01375   0.00099   0.38159
   5 2   F  1S          0.02794   0.04303  -0.06928  -0.02890   0.98615
   6        1PX        -0.09649  -0.03448   0.18176   0.07198   0.03220
   7        1PY         0.18987   0.20009  -0.22858  -0.13495  -0.05783
   8        1PZ         0.08519   0.08359  -0.14017   0.03147  -0.02543
   9 3   F  1S          0.02824   0.04063   0.07054  -0.03004   0.00182
  10        1PX        -0.08922  -0.02282  -0.17273   0.06955  -0.00877
  11        1PY        -0.19105  -0.19030  -0.23890   0.14064   0.00540
  12        1PZ         0.08720   0.08129   0.14594   0.02699   0.00626
  13 4   C  1S          0.11982  -0.18495  -0.00583  -0.05629   0.00049
  14        1PX         0.24136  -0.29184  -0.00602  -0.10173   0.00101
  15        1PY        -0.01091   0.01245   0.04742   0.00526   0.00289
  16        1PZ         0.08291  -0.11310  -0.00104   0.01667   0.00344
  17 5   H  1S         -0.00689   0.01292  -0.00218  -0.01866  -0.00067
  18 6   F  1S          0.02797   0.00709   0.00062   0.08624   0.00177
  19        1PX         0.00217   0.07699   0.00031  -0.02219  -0.00651
  20        1PY        -0.00139   0.00011   0.09212  -0.00419   0.01016
  21        1PZ        -0.22809  -0.04727  -0.00451  -0.40151  -0.00120
  22 7   F  1S          0.00266  -0.00421   0.00149  -0.00195   0.00003
  23        1PX        -0.03462   0.03072  -0.01191   0.01735  -0.00099
  24        1PY         0.00832  -0.01400  -0.00713  -0.00088  -0.00097
  25        1PZ        -0.01322   0.01503  -0.00074   0.00262   0.00013
  26 8   C  1S         -0.00273  -0.00243   0.00942   0.00660   0.00348
  27        1PX         0.03416  -0.05799   0.01934  -0.00835   0.00326
  28        1PY         0.03087  -0.03921  -0.00462  -0.02040  -0.00350
  29        1PZ        -0.00554   0.00558  -0.00140   0.00464  -0.00096
  30 9   H  1S         -0.00396   0.00494   0.00262   0.00362   0.00033
  31 10  H  1S          0.02064  -0.02333  -0.00246  -0.00754  -0.00044
                           6         7         8         9        10
   6        1PX         0.91357
   7        1PY         0.13653   0.73888
   8        1PZ         0.06100  -0.10893   0.93879
   9 3   F  1S         -0.00874  -0.00591   0.00642   0.98610
  10        1PX         0.02119  -0.00235  -0.02225   0.03016   0.92387
  11        1PY         0.00058   0.08719   0.00195   0.05852  -0.12849
  12        1PZ        -0.02228  -0.00445   0.00354  -0.02614   0.05822
  13 4   C  1S          0.03021  -0.01238   0.00380   0.00010   0.03512
  14        1PX         0.05109  -0.02937  -0.00299   0.00129   0.04625
  15        1PY         0.00027   0.00859   0.00400  -0.00227  -0.00722
  16        1PZ         0.01118   0.00140   0.00044   0.00233   0.01846
  17 5   H  1S          0.00142  -0.00621   0.00095   0.00023  -0.00259
  18 6   F  1S         -0.00364   0.00445  -0.01068   0.00180  -0.00356
  19        1PX         0.00644  -0.03018  -0.00961  -0.00634   0.00536
  20        1PY        -0.02704   0.03376   0.02132  -0.01057   0.02594
  21        1PZ        -0.00600   0.02621   0.07044  -0.00107  -0.00473
  22 7   F  1S          0.00212  -0.00047  -0.00056   0.00049  -0.00249
  23        1PX         0.00040   0.00195  -0.00386   0.00400  -0.02092
  24        1PY         0.01241  -0.00596  -0.00625   0.00432  -0.01751
  25        1PZ        -0.00644   0.00314   0.00227  -0.00131   0.00436
  26 8   C  1S         -0.01280   0.01457   0.00446  -0.00072   0.00347
  27        1PX         0.01231  -0.00348   0.00141   0.00077   0.00427
  28        1PY         0.02799  -0.02598  -0.00653   0.00033   0.00278
  29        1PZ         0.00357  -0.00331  -0.00198   0.00021  -0.00194
  30 9   H  1S         -0.00194   0.00266   0.00107   0.00035  -0.00280
  31 10  H  1S          0.00589  -0.00485  -0.00089   0.00046   0.00368
                          11        12        13        14        15
  11        1PY         0.73481
  12        1PZ         0.11268   0.93661
  13 4   C  1S          0.01747   0.00129   0.54824
  14        1PX         0.02805  -0.00212   0.01097   0.48090
  15        1PY        -0.00068  -0.00477   0.01026  -0.02763   0.46281
  16        1PZ         0.00528  -0.00311  -0.03612   0.00473   0.03424
  17 5   H  1S          0.00239   0.00297   0.26864  -0.01705  -0.03247
  18 6   F  1S         -0.00483  -0.01045   0.00133   0.00235  -0.00080
  19        1PX         0.02958  -0.00975   0.02327   0.03770   0.00114
  20        1PY         0.03571  -0.02119  -0.00083   0.00153  -0.00112
  21        1PZ        -0.02520   0.07016   0.01796   0.04308   0.00418
  22 7   F  1S         -0.00269   0.00090   0.02630  -0.03609  -0.06951
  23        1PX        -0.02307   0.00785   0.09554  -0.02897  -0.17762
  24        1PY        -0.01937   0.00762   0.16526  -0.16387  -0.28057
  25        1PZ         0.00491  -0.00174  -0.06538   0.07604   0.14068
  26 8   C  1S         -0.00019  -0.00322   0.13952  -0.12231   0.19656
  27        1PX         0.00839   0.00288   0.11957   0.01780   0.15865
  28        1PY         0.00808   0.00483  -0.19459   0.17608  -0.17564
  29        1PZ        -0.00240   0.00071  -0.07433   0.06213  -0.11398
  30 9   H  1S         -0.00126   0.00024   0.00529   0.00154  -0.01540
  31 10  H  1S          0.00335   0.00055  -0.01183   0.00186   0.00128
                          16        17        18        19        20
  16        1PZ         0.54408
  17 5   H  1S         -0.40536   0.41788
  18 6   F  1S         -0.00362   0.00599   0.98613
  19        1PX         0.00797  -0.00939   0.00203   0.98892
  20        1PY        -0.00153   0.00011   0.00057  -0.00027   0.98622
  21        1PZ         0.02810  -0.03446   0.07094  -0.00794  -0.00292
  22 7   F  1S          0.03245   0.00488  -0.00001   0.00143   0.00082
  23        1PX         0.08523  -0.00238  -0.00091  -0.00141   0.00459
  24        1PY         0.14915  -0.00435  -0.00078   0.00616   0.00632
  25        1PZ        -0.02249   0.03978   0.00032  -0.00308  -0.00205
  26 8   C  1S          0.10050   0.00556  -0.00181   0.00472  -0.00426
  27        1PX         0.08005  -0.01024   0.00042   0.00958   0.00381
  28        1PY        -0.11081  -0.00811   0.00094   0.00678   0.00480
  29        1PZ         0.00198   0.00190  -0.00115   0.00072   0.00015
  30 9   H  1S         -0.00455   0.03967   0.00096  -0.00398   0.00175
  31 10  H  1S         -0.00508  -0.00875   0.00096  -0.00028   0.00173
                          21        22        23        24        25
  21        1PZ         0.61681
  22 7   F  1S          0.00156   0.98594
  23        1PX        -0.00108  -0.03380   0.90868
  24        1PY         0.01014  -0.06306  -0.15527   0.70300
  25        1PZ        -0.00580   0.02688   0.06491   0.12275   0.94389
  26 8   C  1S          0.00622   0.00152   0.01354  -0.02065  -0.01189
  27        1PX         0.01144   0.00116  -0.01145  -0.08443   0.00488
  28        1PY         0.00287  -0.00250  -0.01855  -0.02199   0.01329
  29        1PZ         0.00089  -0.00489  -0.01348   0.00202   0.00752
  30 9   H  1S         -0.00036  -0.00106  -0.00738  -0.00977   0.00499
  31 10  H  1S          0.00057   0.00507   0.01259   0.02949  -0.00568
                          26        27        28        29        30
  26 8   C  1S          0.55599
  27        1PX        -0.01759   0.15614
  28        1PY         0.03190  -0.20912   0.38224
  29        1PZ         0.01456   0.02537  -0.00615   0.55772
  30 9   H  1S          0.28234  -0.02459   0.06645   0.39734   0.42770
  31 10  H  1S          0.28461  -0.16555   0.26314  -0.25518  -0.00399
                          31
  31 10  H  1S          0.43103
    Full Mulliken population analysis:
                           1         2         3         4         5
   1 1   C  1S          1.17576
   2        1PX         0.00000   0.86528
   3        1PY         0.00000   0.00000   0.75135
   4        1PZ         0.00000   0.00000   0.00000   0.76679
   5 2   F  1S          0.00000   0.00000   0.00000   0.00000   1.97231
   6        1PX         0.00000   0.00000   0.00000   0.00000   0.00000
   7        1PY         0.00000   0.00000   0.00000   0.00000   0.00000
   8        1PZ         0.00000   0.00000   0.00000   0.00000   0.00000
   9 3   F  1S          0.00000   0.00000   0.00000   0.00000   0.00000
  10        1PX         0.00000   0.00000   0.00000   0.00000   0.00000
  11        1PY         0.00000   0.00000   0.00000   0.00000   0.00000
  12        1PZ         0.00000   0.00000   0.00000   0.00000   0.00000
  13 4   C  1S          0.00000   0.00000   0.00000   0.00000   0.00000
  14        1PX         0.00000   0.00000   0.00000   0.00000   0.00000
  15        1PY         0.00000   0.00000   0.00000   0.00000   0.00000
  16        1PZ         0.00000   0.00000   0.00000   0.00000   0.00000
  17 5   H  1S          0.00000   0.00000   0.00000   0.00000   0.00000
  18 6   F  1S          0.00000   0.00000   0.00000   0.00000   0.00000
  19        1PX         0.00000   0.00000   0.00000   0.00000   0.00000
  20        1PY         0.00000   0.00000   0.00000   0.00000   0.00000
  21        1PZ         0.00000   0.00000   0.00000   0.00000   0.00000
  22 7   F  1S          0.00000   0.00000   0.00000   0.00000   0.00000
  23        1PX         0.00000   0.00000   0.00000   0.00000   0.00000
  24        1PY         0.00000   0.00000   0.00000   0.00000   0.00000
  25        1PZ         0.00000   0.00000   0.00000   0.00000   0.00000
  26 8   C  1S          0.00000   0.00000   0.00000   0.00000   0.00000
  27        1PX         0.00000   0.00000   0.00000   0.00000   0.00000
  28        1PY         0.00000   0.00000   0.00000   0.00000   0.00000
  29        1PZ         0.00000   0.00000   0.00000   0.00000   0.00000
  30 9   H  1S          0.00000   0.00000   0.00000   0.00000   0.00000
  31 10  H  1S          0.00000   0.00000   0.00000   0.00000   0.00000
                           6         7         8         9        10
   6        1PX         1.83074
   7        1PY         0.00000   1.47882
   8        1PZ         0.00000   0.00000   1.87740
[...]
   A10        1.85189   0.00000   0.00000  -0.00000  -0.00000   1.85189
   A11        1.93580   0.00000   0.00000   0.00000   0.00000   1.93580
   A12        1.92561  -0.00000   0.00000  -0.00000  -0.00000   1.92561
   A13        2.11955   0.00000   0.00000   0.00000   0.00000   2.11955
   A14        2.11066  -0.00000   0.00000  -0.00001  -0.00001   2.11065
   A15        2.05295   0.00000   0.00000   0.00000   0.00000   2.05296
    D1       -1.02796  -0.00000   0.00000  -0.00004  -0.00004  -1.02799
    D2        0.97715  -0.00000   0.00000  -0.00004  -0.00004   0.97711
    D3        3.09450  -0.00000   0.00000  -0.00004  -0.00004   3.09446
    D4        1.04290   0.00000   0.00000  -0.00003  -0.00003   1.04287
    D5        3.04801   0.00000   0.00000  -0.00003  -0.00003   3.04798
    D6       -1.11783   0.00000   0.00000  -0.00003  -0.00003  -1.11786
    D7        3.13725   0.00000   0.00000  -0.00004  -0.00004   3.13721
    D8       -1.14083  -0.00000   0.00000  -0.00004  -0.00004  -1.14087
    D9        0.97651  -0.00000   0.00000  -0.00004  -0.00004   0.97648
   D10       -2.17998  -0.00000   0.00000  -0.00001  -0.00001  -2.17999
   D11        0.96910  -0.00000   0.00000  -0.00001  -0.00001   0.96909
   D12        1.95343   0.00000   0.00000  -0.00000  -0.00000   1.95343
   D13       -1.18067   0.00000   0.00000  -0.00000  -0.00000  -1.18068
   D14       -0.09342   0.00000   0.00000  -0.00000  -0.00000  -0.09342
   D15        3.05566   0.00000   0.00000  -0.00000  -0.00000   3.05566
         Item               Value     Threshold  Converged?
 Maximum Force            0.000004     0.000015     YES
 RMS     Force            0.000001     0.000010     YES
 Maximum Displacement     0.000053     0.000060     YES
 RMS     Displacement     0.000019     0.000040     YES
 Predicted change in Energy=-6.267966D-11
 Optimization completed.
    -- Stationary point found.
                           ----------------------------
                           !   Optimized Parameters   !
                           ! (Angstroms and Degrees)  !
 --------------------------                            --------------------------
 ! Name  Definition              Value          Derivative Info.                !
 --------------------------------------------------------------------------------
 ! R1    R(1,2)                  1.3408         -DE/DX =    0.0                 !
 ! R2    R(1,3)                  1.3435         -DE/DX =    0.0                 !
 ! R3    R(1,4)                  1.5539         -DE/DX =    0.0                 !
 ! R4    R(1,6)                  1.3383         -DE/DX =    0.0                 !
 ! R5    R(4,5)                  1.1283         -DE/DX =    0.0                 !
 ! R6    R(4,7)                  1.3707         -DE/DX =    0.0                 !
 ! R7    R(4,8)                  1.4705         -DE/DX =    0.0                 !
 ! R8    R(8,9)                  1.0725         -DE/DX =    0.0                 !
 ! R9    R(8,10)                 1.0713         -DE/DX =    0.0                 !
 ! A1    A(2,1,3)              103.9259         -DE/DX =    0.0                 !
 ! A2    A(2,1,4)              114.3767         -DE/DX =    0.0                 !
 ! A3    A(2,1,6)              104.4613         -DE/DX =    0.0                 !
 ! A4    A(3,1,4)              113.0084         -DE/DX =    0.0                 !
 ! A5    A(3,1,6)              104.2867         -DE/DX =    0.0                 !
 ! A6    A(4,1,6)              115.5323         -DE/DX =    0.0                 !
 ! A7    A(1,4,5)              109.7933         -DE/DX =    0.0                 !
 ! A8    A(1,4,7)              107.2883         -DE/DX =    0.0                 !
 ! A9    A(1,4,8)              112.171          -DE/DX =    0.0                 !
 ! A10   A(5,4,7)              106.1055         -DE/DX =    0.0                 !
 ! A11   A(5,4,8)              110.913          -DE/DX =    0.0                 !
 ! A12   A(7,4,8)              110.3295         -DE/DX =    0.0                 !
 ! A13   A(4,8,9)              121.4414         -DE/DX =    0.0                 !
 ! A14   A(4,8,10)             120.9317         -DE/DX =    0.0                 !
 ! A15   A(9,8,10)             117.6256         -DE/DX =    0.0                 !
 ! D1    D(2,1,4,5)            -58.8976         -DE/DX =    0.0                 !
 ! D2    D(2,1,4,7)             55.9867         -DE/DX =    0.0                 !
 ! D3    D(2,1,4,8)            177.3016         -DE/DX =    0.0                 !
 ! D4    D(3,1,4,5)             59.7537         -DE/DX =    0.0                 !
 ! D5    D(3,1,4,7)            174.6381         -DE/DX =    0.0                 !
 ! D6    D(3,1,4,8)            -64.0471         -DE/DX =    0.0                 !
 ! D7    D(6,1,4,5)            179.751          -DE/DX =    0.0                 !
 ! D8    D(6,1,4,7)            -65.3646         -DE/DX =    0.0                 !
 ! D9    D(6,1,4,8)             55.9502         -DE/DX =    0.0                 !
 ! D10   D(1,4,8,9)           -124.9037         -DE/DX =    0.0                 !
 ! D11   D(1,4,8,10)            55.5253         -DE/DX =    0.0                 !
 ! D12   D(5,4,8,9)            111.9233         -DE/DX =    0.0                 !
 ! D13   D(5,4,8,10)           -67.6477         -DE/DX =    0.0                 !
 ! D14   D(7,4,8,9)             -5.3524         -DE/DX =    0.0                 !
 ! D15   D(7,4,8,10)           175.0767         -DE/DX =    0.0                 !
 --------------------------------------------------------------------------------
 GradGradGradGradGradGradGradGradGradGradGradGradGradGradGradGradGradGrad

 Leave Link  103 at Fri Sep  6 11:36:42 2024, MaxMem=  1610612736 cpu:               0.2 elap:               0.0
 (Enter /Users/asuyarger/Applications/G16/g16/l9999.exe)

 ----------------------------------------------------------------------

 Electric dipole moment (input orientation):
 (Debye = 10**-18 statcoulomb cm , SI units = C m)
                  (au)            (Debye)         (10**-30 SI)
   Tot        0.945888D+00      0.240421D+01      0.801957D+01
   x          0.711490D-02      0.180843D-01      0.603226D-01
   y          0.396544D+00      0.100791D+01      0.336204D+01
   z         -0.858723D+00     -0.218266D+01     -0.728056D+01

 Dipole polarizability, Alpha (input orientation).
 (esu units = cm**3 , SI units = C**2 m**2 J**-1)
 Alpha(0;0):
               (au)            (10**-24 esu)      (10**-40 SI)
   iso        0.285022D+02      0.422360D+01      0.469939D+01
   aniso      0.807205D+01      0.119615D+01      0.133090D+01
   xx         0.307368D+02      0.455473D+01      0.506782D+01
   yx        -0.345045D+01     -0.511304D+00     -0.568902D+00
   yy         0.263623D+02      0.390649D+01      0.434656D+01
   zx         0.172846D+01      0.256131D+00      0.284984D+00
   zy         0.142666D+01      0.211409D+00      0.235225D+00
   zz         0.284076D+02      0.420958D+01      0.468379D+01

 First dipole hyperpolarizability, Beta (input orientation).
 ||, _|_  parallel and perpendicular components, (z) with respect to z axis,
 vector components x,y,z.  Values do not include the 1/n! factor of 1/2.
 (esu units = statvolt**-1 cm**4 , SI units = C**3 m**3 J**-2)
 Beta(0;0,0):
               (au)            (10**-30 esu)      (10**-50 SI)
   || (z)     0.189137D+02      0.163400D+00      0.606443D-01
   _|_(z)     0.630458D+01      0.544666D-01      0.202148D-01
   x         -0.382736D+01     -0.330654D-01     -0.122719D-01
   y          0.482643D+02      0.416966D+00      0.154753D+00
   z          0.945686D+02      0.816999D+00      0.303221D+00
   ||         0.212484D+02      0.183569D+00      0.681299D-01
   xxx       -0.803800D+01     -0.694421D-01     -0.257727D-01
   xxy        0.393191D+01      0.339686D-01      0.126071D-01
   yxy        0.510970D+01      0.441439D-01      0.163836D-01
   yyy        0.160644D+02      0.138784D+00      0.515083D-01
   xxz        0.949834D+00      0.820582D-02      0.304551D-02
   yxz       -0.316576D+00     -0.273497D-02     -0.101506D-02
   yyz       -0.515591D+01     -0.445430D-01     -0.165317D-01
   zxz        0.165251D+01      0.142764D-01      0.529855D-02
   zyz       -0.390824D+01     -0.337641D-01     -0.125312D-01
   zzz        0.357290D+02      0.308670D+00      0.114560D+00

 ----------------------------------------------------------------------

 Dipole orientation:
     6         -2.10584461         -1.93531600          0.83461563
     9         -0.84749229         -3.39546615         -0.80989770
     9         -4.17370220         -3.29493477          1.40090058
     6         -0.55395683         -1.16500282          3.20544776
     1          0.08448923         -2.91122100          4.24917427
     9         -2.98244279         -0.01934810         -0.56423311
     9          1.60248189          0.00058753          2.36857641
     6         -1.97761748          0.52978082          4.88548530
     1         -1.23683176          2.33168597          5.44411878
     1         -3.79291663         -0.00307158          5.60583119

 Electric dipole moment (dipole orientation):
 (Debye = 10**-18 statcoulomb cm , SI units = C m)
                  (au)            (Debye)         (10**-30 SI)
   Tot        0.945888D+00      0.240421D+01      0.801957D+01
   x          0.000000D+00      0.000000D+00      0.000000D+00
   y          0.000000D+00      0.000000D+00      0.000000D+00
   z          0.945888D+00      0.240421D+01      0.801957D+01

 Dipole polarizability, Alpha (dipole orientation).
 (esu units = cm**3 , SI units = C**2 m**2 J**-1)
 Alpha(0;0):
               (au)            (10**-24 esu)      (10**-40 SI)
   iso        0.285022D+02      0.422360D+01      0.469939D+01
   aniso      0.807205D+01      0.119615D+01      0.133090D+01
   xx         0.307740D+02      0.456024D+01      0.507395D+01
   yx         0.239996D+01      0.355637D+00      0.395699D+00
   yy         0.278158D+02      0.412187D+01      0.458620D+01
   zx        -0.298990D+01     -0.443058D+00     -0.492968D+00
   zy         0.171676D+01      0.254398D+00      0.283056D+00
   zz         0.269170D+02      0.398868D+01      0.443801D+01

 First dipole hyperpolarizability, Beta (dipole orientation).
 ||, _|_  parallel and perpendicular components, (z) with respect to z axis,
 vector components x,y,z.  Values do not include the 1/n! factor of 1/2.
 (esu units = statvolt**-1 cm**4 , SI units = C**3 m**3 J**-2)
 Beta(0;0,0):
               (au)            (10**-30 esu)      (10**-50 SI)
   || (z)    -0.131298D+02     -0.113431D+00     -0.420989D-01
   _|_(z)    -0.437660D+01     -0.378104D-01     -0.140330D-01
   x         -0.319568D+01     -0.276082D-01     -0.102465D-01
   y         -0.834704D+02     -0.721119D+00     -0.267636D+00
   z         -0.656491D+02     -0.567157D+00     -0.210495D+00
   ||         0.212484D+02      0.183569D+00      0.681299D-01
   xxx       -0.803499D+01     -0.694160D-01     -0.257631D-01
   xxy       -0.397298D+01     -0.343235D-01     -0.127388D-01
   yxy        0.422647D+01      0.365134D-01      0.135516D-01
   yyy       -0.741702D+01     -0.640773D-01     -0.237816D-01
   xxz        0.691045D+00      0.597009D-02      0.221574D-02
   yxz       -0.143367D+01     -0.123858D-01     -0.459686D-02
   yyz        0.450276D+01      0.389004D-01      0.144375D-01
   zxz        0.274329D+01      0.236999D-01      0.879598D-02
   zyz       -0.164335D+02     -0.141972D+00     -0.526916D-01
   zzz       -0.270768D+02     -0.233923D+00     -0.868181D-01

 ----------------------------------------------------------------------
 1\1\GINC-JEFFSMACSTUDIO\Freq\UPM6\ZDO\C3H3F4(2)\ROOT\06-Sep-2024\0\\#P
  Geom=AllCheck Guess=TCheck SCRF=Check GenChk UPM6/ZDO Freq\\R1234YF P
 M6 Opt Freq - Full - NBO\\0,2\C,-1.1127025354,1.1167800934,0.020000892
 8\F,-0.4546539215,1.4523478816,1.1389848327\F,-2.2058683386,1.89741717
 45,0.0413460725\C,-0.2813925424,1.2713032347,-1.2836921184\H,0.0590756
 817,2.3412255211,-1.3951780819\F,-1.5804567706,-0.1132692208,0.2634858
 752\F,0.8574002239,0.5237768259,-1.1316469039\C,-1.026569342,0.8310362
 752,-2.4724530019\H,-0.630774393,0.0886321858,-3.137625794\H,-1.984754
 572,1.2484279886,-2.7075307631\\Version=EM64M-G16RevA.03\State=2-A\HF=
 -0.2991342\S2=0.754636\S2-1=0.\S2A=0.750017\RMSD=6.189e-10\RMSF=1.405e
 -06\ZeroPoint=0.0552094\Thermal=0.0624521\Dipole=0.0071149,0.3965439,-
 0.8587233\DipoleDeriv=1.1699936,-0.00132,0.1372199,0.0205493,1.2946725
 ,0.0546927,0.1079225,0.0402593,1.0374885,-0.3834881,-0.0416417,-0.0504
 752,-0.0686756,-0.3027768,-0.0540037,-0.1801129,-0.0870997,-0.5222604,
 -0.4907827,0.1795615,-0.0349416,0.1283532,-0.4050196,0.0483422,0.05395
 9,-0.0229285,-0.3187842,0.3288189,-0.1915365,-0.1823775,-0.244831,-0.1
 356909,-0.0414777,-0.0603352,-0.0667141,0.2489354,0.0785372,0.0558512,
 -0.0099305,0.0902007,0.2822203,-0.0368542,-0.0031929,-0.0183544,0.0748
 636,-0.3073542,-0.1297417,0.028142,-0.0567298,-0.5450406,-0.0147764,0.
 0432335,0.0778488,-0.3200124,-0.3721823,0.0866264,0.0201275,0.1245652,
 -0.1882279,0.0007875,-0.0001765,-0.004122,-0.1929651,-0.4386422,0.0684
 391,0.124088,0.0189731,-0.4236799,0.0374634,0.0657002,0.0905743,-0.410
 9072,0.1697687,-0.0094213,-0.0697926,0.0045255,0.240183,0.0514231,-0.0
 445814,0.0290074,0.2274938,0.2453313,-0.0168188,0.0379433,-0.0169283,0
 .1833593,-0.0456039,0.0175866,-0.0384775,0.1761477\Polar=30.7368108,-3
 .4504487,26.3623082,1.7284575,1.4266608,28.4076288\HyperPolar=-8.03800
 18,3.9319085,5.1097041,16.064424,0.9498338,-0.3165756,-5.1559062,1.652
 5115,-3.9082378,35.7289552\PG=C01 [X(C3H3F4)]\NImag=0\\0.55054425,0.00
 499184,0.56127677,0.00709577,-0.00158261,0.54751977,-0.10510946,-0.038
 60913,-0.13393297,0.18441981,-0.03618630,-0.05319865,-0.07059551,0.059
 97348,0.09065218,-0.12472109,-0.06868549,-0.28077741,0.19581622,0.0935
 4188,0.34963400,-0.25733552,0.15194575,0.01942501,-0.06300858,0.016113
 90,-0.04469436,0.34657850,0.15494150,-0.13956268,-0.01239451,0.0165084
 0,0.00421715,0.01444607,-0.21277591,0.21829028,0.01242263,-0.00724106,
 -0.03703383,-0.04489014,0.01425177,-0.01794861,0.01262013,-0.00527555,
 0.05805423,-0.07280189,-0.01032718,0.05206743,0.00594628,-0.00050848,-
 0.00893095,-0.02535305,0.01119265,0.01901472,0.50643529,-0.00870643,-0
 .05102637,0.01354644,0.00060286,0.00489317,-0.00525913,0.01510857,0.00
 004772,-0.00963826,-0.04804542,0.43960650,0.04395522,0.01247375,-0.125
 21445,0.00207817,-0.00358035,-0.03975344,0.01186624,-0.00423986,-0.001
 95173,0.06581444,0.02699514,0.47294270,-0.00601292,-0.01494454,0.01132
 857,-0.00004134,-0.00003943,0.00004338,-0.00135614,-0.00005169,0.00068
 559,-0.04994607,-0.05446454,0.00642009,0.06755368,-0.01104567,-0.00615
 113,0.01297772,0.00000140,-0.00039620,-0.00017507,0.00023013,-0.000384
 01,-0.00020107,-0.04639114,-0.17399065,0.01657667,0.05823791,0.2303321
 3,0.01515423,0.02131379,-0.00960357,0.00006065,0.00020549,-0.00162712,
 0.00087623,-0.00016177,-0.00065326,0.00070750,0.00856132,-0.03112893,-
 0.00653947,-0.01900089,0.04687228,-0.08023265,-0.10984378,0.02986430,-
 0.02240781,-0.03960238,-0.02144997,0.00315707,0.02969178,-0.00445307,-
 0.00568756,-0.01833149,0.01126701,-0.00115807,0.00030401,0.00211936,0.
 10741901,-0.11601309,-0.31224510,0.06996677,-0.03902446,-0.04670804,-0
 .03327979,0.02970123,-0.08342217,0.00955700,-0.01150135,-0.01385021,0.
 01315285,-0.00067093,0.00008460,0.00153601,0.13858700,0.45567218,0.027
 38884,0.06167488,-0.05146175,-0.02130091,-0.03343124,-0.00647269,-0.00
 440237,0.00956441,0.00476809,0.01238883,0.02223272,-0.00805803,0.00146
 743,-0.00042533,-0.00285711,-0.01769281,-0.06082233,0.06559750,-0.0357
 7505,0.01534629,0.01523948,0.00034260,0.00004759,0.00106315,-0.0024631
 9,0.00015919,0.00334734,-0.24056828,0.14303630,-0.02981853,-0.00319275
 ,0.01379088,-0.00165036,-0.00096435,-0.00050728,0.00134996,0.31998206,
 0.01193448,-0.00081468,-0.00683234,0.00034232,0.00032710,-0.00093589,-
 0.00024184,0.00071566,-0.00047868,0.13685732,-0.13580245,0.01978623,0.
 02882785,-0.03208771,0.00555210,-0.00034668,0.00071570,-0.00011834,-0.
 18147164,0.15950390,0.01957268,-0.01091214,-0.00132889,0.00112248,-0.0
 0041702,-0.00038760,0.00347842,-0.00095241,-0.00250026,-0.02589733,0.0
 1943673,-0.04240610,-0.00379676,0.00482643,0.00440946,0.00054540,0.000
 01619,0.00008968,0.03740717,-0.02227084,0.05373103,0.00631308,0.001923
 52,-0.00034426,0.00013036,0.00024159,0.00309117,0.00040290,0.00016905,
 0.00110919,-0.10704494,-0.02640233,-0.08384622,-0.00502461,-0.01428884
 ,-0.01005634,0.00040673,-0.00037518,0.00057813,-0.03598173,0.00453988,
 -0.03059075,0.39136382,0.00091741,0.00002036,-0.00522963,0.00019398,0.
 00043886,0.00036888,-0.00035002,0.00060654,-0.00091915,-0.02817071,-0.
 07220569,-0.06093588,-0.01654394,-0.01710850,-0.01770676,-0.00014412,0
 .00063688,0.00114264,0.01070776,0.00752333,0.01168778,-0.09274082,0.26
 604177,0.00140046,-0.00552785,-0.03861460,0.00074996,-0.00022477,-0.00
 327422,0.00050881,-0.00073549,-0.00180983,-0.08979896,-0.05749147,-0.1
 9043583,-0.00845180,-0.01357969,-0.00412517,-0.00026547,-0.00038298,-0
 .00193407,-0.02403802,0.00613014,-0.00853630,0.11371086,0.14319597,0.3
 9378620,-0.00123045,-0.00032317,-0.00009417,0.00007503,-0.00003741,-0.
 00061805,-0.00005766,-0.00001006,0.00002186,0.00761451,-0.00710340,-0.
 01173745,-0.00040659,-0.00026353,-0.00050075,-0.00011099,-0.00012760,-
 0.00000057,-0.00066580,-0.00012024,-0.00068127,-0.06039618,0.05437280,
 0.04592850,0.06440327,-0.00029526,0.00047108,-0.00023914,-0.00006803,-
 0.00010434,0.00006802,-0.00009038,-0.00014040,0.00020793,0.00063132,-0
 .00324519,-0.01745224,0.00004457,-0.00066612,0.00031328,-0.00023665,-0
 .00043070,0.00019872,-0.00008698,-0.00027196,-0.00004413,0.05318344,-0
 .12563107,-0.08695283,-0.06478174,0.13388785,-0.00062321,-0.00122705,-
 0.00166944,0.00011129,0.00013186,0.00018790,-0.00012766,0.00016709,0.0
 0025283,-0.00055008,-0.02253301,-0.02338948,-0.00095563,-0.00055597,-0
 .00113136,-0.00005348,0.00011068,0.00030344,-0.00027757,-0.00021073,-0
 .00078945,0.04375466,-0.08522216,-0.10614635,-0.04151874,0.11208915,0.
 12636265,0.00164141,-0.00015999,-0.00064927,-0.00034737,-0.00000254,0.
 00040082,-0.00056428,0.00017528,0.00012143,-0.01859417,0.00430616,-0.0
 1599893,-0.00041528,-0.00057521,-0.00017097,-0.00042160,-0.00006824,0.
 00022339,-0.00071366,-0.00032146,-0.00115996,-0.19016961,0.07175768,-0
 .03974432,-0.00922500,0.01169980,0.00024032,0.21880956,-0.00053827,0.0
 0123084,0.00038311,0.00007909,-0.00012149,-0.00008949,0.00035835,-0.00
 036806,-0.00026269,-0.00373596,0.00557410,-0.00277598,-0.00039537,0.00
 036764,-0.00061263,-0.00007750,-0.00045334,-0.00001665,-0.00102283,0.0
 0019054,-0.00137074,0.07374940,-0.06032335,0.01556837,0.01839440,-0.00
 386900,-0.00274955,-0.08681153,0.05777236,-0.00164501,-0.00028611,-0.0
 0181435,0.00018473,0.00011768,0.00041907,0.00044946,-0.00041784,-0.001
 17811,-0.02481509,0.00414933,-0.01060589,-0.00020139,-0.00044267,-0.00
 015526,0.00011864,0.00014565,0.00002472,-0.00262308,-0.00062173,-0.002
 28101,-0.03740647,0.01361836,-0.03891011,0.00920070,-0.00818883,0.0060
 1943,0.05673757,-0.00807370,0.04848163\\-0.00000232,-0.00000163,-0.000
 00009,-0.00000008,0.00000029,0.00000016,0.00000126,-0.00000043,0.00000
 015,0.00000143,0.00000313,-0.00000131,-0.00000109,-0.00000361,-0.00000
 019,0.00000073,0.00000123,-0.00000008,-0.00000028,0.00000016,0.0000001
 3,-0.00000133,0.00000270,0.00000236,0.00000070,-0.00000126,-0.00000115
 ,0.00000096,-0.00000057,0.00000001\\\@


 SUCCESS IS COUNTED SWEETEST
 BY THOSE WHO NE'ER SUCCEED.
 TO COMPREHEND NECTAR
 REQUIRES SOREST NEED.
           EMILY DICKINSON
 Job cpu time:       0 days  0 hours  0 minutes  4.3 seconds.
 Elapsed time:       0 days  0 hours  0 minutes  3.4 seconds.
 File lengths (MBytes):  RWF=     10 Int=      0 D2E=      0 Chk=      2 Scr=      1
 Normal termination of Gaussian 16 at Fri Sep  6 11:36:42 2024.
