 Entering Gaussian System, Link 0=g16
 Input=/Users/asuyarger/Downloads/r134a_PM6_Opt_Freq_Full_NBO.gjf
 Output=/Users/asuyarger/Downloads/r134a_PM6_Opt_Freq_Full_NBO.log
 Initial command:
 /Users/asuyarger/Applications/G16/g16/l1.exe "/Users/asuyarger/Applications/G16/scratch/Gau-89769.inp" -scrdir="/Users/asuyarger/Applications/G16/scratch/"
 Entering Link 1 = /Users/asuyarger/Applications/G16/g16/l1.exe PID=     89770.
  
 Copyright (c) 1988,1990,1992,1993,1995,1998,2003,2009,2016,
            Gaussian, Inc.  All Rights Reserved.
  
 This is part of the Gaussian(R) 16 program.  It is based on
 the Gaussian(R) 09 system (copyright 2009, Gaussian, Inc.),
 the Gaussian(R) 03 system (copyright 2003, Gaussian, Inc.),
 the Gaussian(R) 98 system (copyright 1998, Gaussian, Inc.),
 the Gaussian(R) 94 system (copyright 1995, Gaussian, Inc.),
 the Gaussian 92(TM) system (copyright 1992, Gaussian, Inc.),
 the Gaussian 90(TM) system (copyright 1990, Gaussian, Inc.),
 the Gaussian 88(TM) system (copyright 1988, Gaussian, Inc.),
 the Gaussian 86(TM) system (copyright 1986, Carnegie Mellon
 University), and the Gaussian 82(TM) system (copyright 1983,
 Carnegie Mellon University). Gaussian is a federally registered
 trademark of Gaussian, Inc.
  
 This software contains proprietary and confidential information,
 including trade secrets, belonging to Gaussian, Inc.
  
 This software is provided under written license and may be
 used, copied, transmitted, or stored only in accord with that
 written license.
  
 The following legend is applicable only to US Government
 contracts under FAR:
  
                    RESTRICTED RIGHTS LEGEND
  
 Use, reproduction and disclosure by the US Government is
 subject to restrictions as set forth in subparagraphs (a)
 and (c) of the Commercial Computer Software - Restricted
 Rights clause in FAR 52.227-19.
  
 Gaussian, Inc.
 340 Quinnipiac St., Bldg. 40, Wallingford CT 06492
  
  
 ---------------------------------------------------------------
 Warning -- This program may not be used in any manner that
 competes with the business of Gaussian, Inc. or will provide
 assistance to any competitor of Gaussian, Inc.  The licensee
 of this program is prohibited from giving any competitor of
 Gaussian, Inc. access to this program.  By using this program,
 the user acknowledges that Gaussian, Inc. is engaged in the
 business of creating and licensing software in the field of
 computational chemistry and represents and warrants to the
 licensee that it is not a competitor of Gaussian, Inc. and that
 it will not use this program in any manner prohibited above.
 ---------------------------------------------------------------
  

 Cite this work as:
 Gaussian 16, Revision A.03,
 M. J. Frisch, G. W. Trucks, H. B. Schlegel, G. E. Scuseria, 
 M. A. Robb, J. R. Cheeseman, G. Scalmani, V. Barone, 
 G. A. Petersson, H. Nakatsuji, X. Li, M. Caricato, A. V. Marenich, 
 J. Bloino, B. G. Janesko, R. Gomperts, B. Mennucci, H. P. Hratchian, 
 J. V. Ortiz, A. F. Izmaylov, J. L. Sonnenberg, D. Williams-Young, 
 F. Ding, F. Lipparini, F. Egidi, J. Goings, B. Peng, A. Petrone, 
 T. Henderson, D. Ranasinghe, V. G. Zakrzewski, J. Gao, N. Rega, 
 G. Zheng, W. Liang, M. Hada, M. Ehara, K. Toyota, R. Fukuda, 
 J. Hasegawa, M. Ishida, T. Nakajima, Y. Honda, O. Kitao, H. Nakai, 
 T. Vreven, K. Throssell, J. A. Montgomery, Jr., J. E. Peralta, 
 F. Ogliaro, M. J. Bearpark, J. J. Heyd, E. N. Brothers, K. N. Kudin, 
 V. N. Staroverov, T. A. Keith, R. Kobayashi, J. Normand, 
 K. Raghavachari, A. P. Rendell, J. C. Burant, S. S. Iyengar, 
 J. Tomasi, M. Cossi, J. M. Millam, M. Klene, C. Adamo, R. Cammi, 
 J. W. Ochterski, R. L. Martin, K. Morokuma, O. Farkas, 
 J. B. Foresman, and D. J. Fox, Gaussian, Inc., Wallingford CT, 2016.
 
 ******************************************
 Gaussian 16:  EM64M-G16RevA.03 25-Dec-2016
                 6-Sep-2024 
 ******************************************
 %nprocshared=12
 Will use up to   12 processors via shared memory.
 %mem=12GB
 %chk=r134a_PM6_Opt_Freq_Full_NBO.chk
 ----------------------------------------------------------------------
 #p opt=tight freq pm6 guess=save pop=(hirshfeld,full,nbo) geom=connect
 ivity polar
 ----------------------------------------------------------------------
 1/7=10,18=20,19=15,26=1,38=1,57=2/1,3;
 2/9=110,12=2,17=6,18=5,40=1/2;
 3/5=2,25=1,41=3900000,71=1/1,2,3;
 4/35=1/1;
 5/5=2,35=1,38=5,98=1/2;
 6/7=3,28=1,40=1,79=1/1,7;
 7//1,2,3,16;
 1/7=10,18=20,19=15,26=1/3(2);
 2/9=110/2;
 99//99;
 2/9=110/2;
 3/5=2,25=1,41=3900000,71=1,135=20/1,2,3;
 4/5=5,16=3,35=1/1;
 5/5=2,35=1,38=5,98=1/2;
 7//1,2,3,16;
 1/7=10,18=20,19=15,26=1/3(-5);
 2/9=110/2;
 6/7=3,19=2,28=1,40=1,79=1/1,7;
 99/9=1/99;
 Leave Link    1 at Fri Sep  6 11:33:46 2024, MaxMem=  1610612736 cpu:               0.2 elap:               0.0
 (Enter /Users/asuyarger/Applications/G16/g16/l101.exe)
 -------------------------------
 R134a PM6 Opt Freq - Full - NBO
 -------------------------------
 Symbolic Z-matrix:
 Charge =  0 Multiplicity = 1
 C                    -0.93128   0.8047    0. 
 F                    -0.48136   1.44115   1.10227 
 F                    -2.28128   0.80463  -0.00005 
 C                    -0.41794   1.53066  -1.2574 
 H                    -0.77455   1.02622  -2.13105 
 H                    -0.77467   2.53945  -1.25744 
 F                    -0.48121  -0.46806   0.00005 
 F                     0.93206   1.53074  -1.25735 
 
 ITRead=  0  0  0  0  0  0  0  0
 MicOpt= -1 -1 -1 -1 -1 -1 -1 -1
 NAtoms=      8 NQM=        8 NQMF=       0 NMMI=      0 NMMIF=      0
                NMic=       0 NMicF=      0.
                    Isotopes and Nuclear Properties:
 (Nuclear quadrupole moments (NQMom) in fm**2, nuclear magnetic moments (NMagM)
  in nuclear magnetons)

  Atom         1           2           3           4           5           6           7           8
 IAtWgt=          12          19          19          12           1           1          19          19
 AtmWgt=  12.0000000  18.9984033  18.9984033  12.0000000   1.0078250   1.0078250  18.9984033  18.9984033
 NucSpn=           0           1           1           0           1           1           1           1
 AtZEff=  -0.0000000  -0.0000000  -0.0000000  -0.0000000  -0.0000000  -0.0000000  -0.0000000  -0.0000000
 NQMom=    0.0000000   0.0000000   0.0000000   0.0000000   0.0000000   0.0000000   0.0000000   0.0000000
 NMagM=    0.0000000   2.6288670   2.6288670   0.0000000   2.7928460   2.7928460   2.6288670   2.6288670
 AtZNuc=   6.0000000   9.0000000   9.0000000   6.0000000   1.0000000   1.0000000   9.0000000   9.0000000
 Leave Link  101 at Fri Sep  6 11:33:46 2024, MaxMem=  1610612736 cpu:               2.4 elap:               0.2
 (Enter /Users/asuyarger/Applications/G16/g16/l103.exe)

 GradGradGradGradGradGradGradGradGradGradGradGradGradGradGradGradGradGrad
 Berny optimization.
 Initialization pass.
                           ----------------------------
                           !    Initial Parameters    !
                           ! (Angstroms and Degrees)  !
 --------------------------                            --------------------------
 ! Name  Definition              Value          Derivative Info.                !
 --------------------------------------------------------------------------------
 ! R1    R(1,2)                  1.35           estimate D2E/DX2                !
 ! R2    R(1,3)                  1.35           estimate D2E/DX2                !
 ! R3    R(1,4)                  1.54           estimate D2E/DX2                !
 ! R4    R(1,7)                  1.35           estimate D2E/DX2                !
 ! R5    R(4,5)                  1.07           estimate D2E/DX2                !
 ! R6    R(4,6)                  1.07           estimate D2E/DX2                !
 ! R7    R(4,8)                  1.35           estimate D2E/DX2                !
 ! A1    A(2,1,3)              109.4712         estimate D2E/DX2                !
 ! A2    A(2,1,4)              109.4712         estimate D2E/DX2                !
 ! A3    A(2,1,7)              109.4712         estimate D2E/DX2                !
 ! A4    A(3,1,4)              109.4712         estimate D2E/DX2                !
 ! A5    A(3,1,7)              109.4712         estimate D2E/DX2                !
 ! A6    A(4,1,7)              109.4712         estimate D2E/DX2                !
 ! A7    A(1,4,5)              109.4712         estimate D2E/DX2                !
 ! A8    A(1,4,6)              109.4712         estimate D2E/DX2                !
 ! A9    A(1,4,8)              109.4712         estimate D2E/DX2                !
 ! A10   A(5,4,6)              109.4712         estimate D2E/DX2                !
 ! A11   A(5,4,8)              109.4712         estimate D2E/DX2                !
 ! A12   A(6,4,8)              109.4712         estimate D2E/DX2                !
 ! D1    D(2,1,4,5)            180.0            estimate D2E/DX2                !
 ! D2    D(2,1,4,6)            -60.0            estimate D2E/DX2                !
 ! D3    D(2,1,4,8)             60.0            estimate D2E/DX2                !
 ! D4    D(3,1,4,5)            -60.0            estimate D2E/DX2                !
 ! D5    D(3,1,4,6)             60.0            estimate D2E/DX2                !
 ! D6    D(3,1,4,8)            180.0            estimate D2E/DX2                !
 ! D7    D(7,1,4,5)             60.0            estimate D2E/DX2                !
 ! D8    D(7,1,4,6)            180.0            estimate D2E/DX2                !
 ! D9    D(7,1,4,8)            -60.0            estimate D2E/DX2                !
 --------------------------------------------------------------------------------
 Trust Radius=3.00D-01 FncErr=1.00D-07 GrdErr=1.00D-07 EigMax=2.50D+02 EigMin=1.00D-04
 Number of steps in this run=     38 maximum allowed number of steps=    100.
 GradGradGradGradGradGradGradGradGradGradGradGradGradGradGradGradGradGrad

 Leave Link  103 at Fri Sep  6 11:33:46 2024, MaxMem=  1610612736 cpu:               0.1 elap:               0.0
 (Enter /Users/asuyarger/Applications/G16/g16/l202.exe)
                          Input orientation:                          
 ---------------------------------------------------------------------
 Center     Atomic      Atomic             Coordinates (Angstroms)
 Number     Number       Type             X           Y           Z
 ---------------------------------------------------------------------
      1          6           0       -0.931284    0.804702    0.000001
      2          9           0       -0.481364    1.441151    1.102273
      3          9           0       -2.281284    0.804626   -0.000053
      4          6           0       -0.417942    1.530664   -1.257401
      5          1           0       -0.774545    1.026219   -2.131055
      6          1           0       -0.774665    2.539449   -1.257440
      7          9           0       -0.481212   -0.468064    0.000050
      8          9           0        0.932058    1.530740   -1.257348
 ---------------------------------------------------------------------
                    Distance matrix (angstroms):
                    1          2          3          4          5
     1  C    0.000000
     2  F    1.350000   0.000000
     3  F    1.350000   2.204541   0.000000
     4  C    1.540000   2.362224   2.362224   0.000000
     5  H    2.148263   3.273001   2.619262   1.070000   0.000000
     6  H    2.148263   2.619262   2.619262   1.070000   1.747303
     7  F    1.350000   2.204541   2.204541   2.362224   2.619262
     8  F    2.362224   2.752017   3.526131   1.350000   1.982524
                    6          7          8
     6  H    0.000000
     7  F    3.273001   0.000000
     8  F    1.982524   2.752017   0.000000
 Stoichiometry    C2H2F4
 Framework group  CS[SG(C2F2),X(H2F2)]
 Deg. of freedom    11
 Full point group                 CS      NOp   2
 Largest Abelian subgroup         CS      NOp   2
 Largest concise Abelian subgroup CS      NOp   2
                         Standard orientation:                         
 ---------------------------------------------------------------------
 Center     Atomic      Atomic             Coordinates (Angstroms)
 Number     Number       Type             X           Y           Z
 ---------------------------------------------------------------------
      1          6           0       -0.026516    0.429212    0.000000
      2          9           0       -0.805098    0.465407    1.102270
      3          9           0        0.803253    1.494099    0.000000
      4          6           0        0.803253   -0.868125   -0.000000
      5          1           0        1.420351   -0.896813   -0.873651
      6          1           0        1.420351   -0.896813    0.873651
      7          9           0       -0.805098    0.465407   -1.102270
      8          9           0       -0.026516   -1.933012   -0.000000
 ---------------------------------------------------------------------
 Rotational constants (GHZ):           5.2497613           2.7740143           2.7610136
 Leave Link  202 at Fri Sep  6 11:33:46 2024, MaxMem=  1610612736 cpu:               0.1 elap:               0.0
 (Enter /Users/asuyarger/Applications/G16/g16/l301.exe)
 Standard basis: VSTO-6G (5D, 7F)
 Ernie: Thresh=  0.10000D-02 Tol=  0.10000D-05 Strict=F.
  NNHCO=     0 NNPyr=     0 NCTC=     0               EPep=         0.000000000
    EC=       132.133369902  ECS=         1.420414940   EG=         0.167356567
   EHC=         0.000587612  EAt=       -78.111695141  AtH=         0.831133268
 EPDDG=         0.000000000  ECC=       133.721729021 EAtT=        78.942828409
 There are    17 symmetry adapted cartesian basis functions of A'  symmetry.
 There are     9 symmetry adapted cartesian basis functions of A"  symmetry.
 There are    17 symmetry adapted basis functions of A'  symmetry.
 There are     9 symmetry adapted basis functions of A"  symmetry.
    26 basis functions,   156 primitive gaussians,    26 cartesian basis functions
    19 alpha electrons       19 beta electrons
       nuclear repulsion energy       212.6645574297 Hartrees.
 IExCor=    0 DFT=F Ex=HF Corr=None ExCW=0 ScaHFX=  1.000000
 ScaDFX=  1.000000  1.000000  1.000000  1.000000 ScalE2=  1.000000  1.000000
 IRadAn=      5 IRanWt=     -1 IRanGd=            0 ICorTp=0 IEmpDi=  4
 Integral buffers will be    131072 words long.
 Regular integral format.
 Two-electron integral symmetry is turned off.
 Leave Link  301 at Fri Sep  6 11:33:46 2024, MaxMem=  1610612736 cpu:               0.2 elap:               0.0
 (Enter /Users/asuyarger/Applications/G16/g16/l302.exe)
 Do NDO integrals.
 NPDir=0 NMtPBC=     1 NCelOv=     1 NCel=       1 NClECP=     1 NCelD=      1
         NCelK=      1 NCelE2=     1 NClLst=     1 CellRange=     0.0.
 One-electron integrals computed using PRISM.
 NBasis=    26 RedAO= T EigKep=  1.00D+00  NBF=    17     9
 NBsUse=    26 1.00D-06 EigRej= -1.00D+00 NBFU=    17     9
 Leave Link  302 at Fri Sep  6 11:33:46 2024, MaxMem=  1610612736 cpu:               0.5 elap:               0.1
 (Enter /Users/asuyarger/Applications/G16/g16/l303.exe)
 DipDrv:  MaxL=1.
 Leave Link  303 at Fri Sep  6 11:33:46 2024, MaxMem=  1610612736 cpu:               0.2 elap:               0.0
 (Enter /Users/asuyarger/Applications/G16/g16/l401.exe)
 Simple Huckel Guess.
 JPrj=0 DoOrth=F DoCkMO=F.
 Initial guess orbital symmetries:
       Occupied  (A') (A') (A") (A') (A') (A') (A") (A') (A') (A")
                 (A') (A') (A") (A') (A") (A") (A') (A") (A')
       Virtual   (A') (A') (A") (A') (A") (A') (A')
 The electronic state of the initial guess is 1-A'.
 Leave Link  401 at Fri Sep  6 11:33:46 2024, MaxMem=  1610612736 cpu:               0.2 elap:               0.0
 (Enter /Users/asuyarger/Applications/G16/g16/l502.exe)
 Keep J ints in memory in canonical form, NReq=861186.
 FoFCou: FMM=F IPFlag=           0 FMFlag=           0 FMFlg1=           0
         NFxFlg=           0 DoJE=F BraDBF=F KetDBF=F FulRan=T
         wScrn=  0.000000 ICntrl=       600 IOpCl=  2 I1Cent=           0 NGrid=           0
         NMat0=    1 NMatS0=     62 NMatT0=    0 NMatD0=    1 NMtDS0=    0 NMtDT0=    0
 Symmetry not used in FoFCou.
 Two-electron integral symmetry not used.
 Closed shell SCF:
 Using DIIS extrapolation, IDIIS=  1040.
 Overlap will be assumed to be unity.
 NGot=  1610612736 LenX=  1610549689 LenY=  1610548572
 Requested convergence on RMS density matrix=1.00D-08 within 128 cycles.
 Requested convergence on MAX density matrix=1.00D-06.
 Requested convergence on             energy=1.00D-06.
 No special actions if energy rises.

 Cycle   1  Pass 1  IDiag  1:
 E= 0.443020778114459    
 DIIS: error= 7.73D-02 at cycle   1 NSaved=   1.
 NSaved= 1 IEnMin= 1 EnMin= 0.443020778114459     IErMin= 1 ErrMin= 7.73D-02
 ErrMax= 7.73D-02  0.00D+00 EMaxC= 1.00D-01 BMatC= 2.69D-01 BMatP= 2.69D-01
 IDIUse=3 WtCom= 2.27D-01 WtEn= 7.73D-01
 Coeff-Com:  0.100D+01
 Coeff-En:   0.100D+01
 Coeff:      0.100D+01
 GapD=    2.000 DampG=2.000 DampE=0.500 DampFc=1.0000 IDamp=-1.
 RMSDP=2.52D-02 MaxDP=1.07D-01              OVMax= 0.00D+00

 Cycle   2  Pass 1  IDiag  1:
 E=-0.217379427855349     Delta-E=       -0.660400205970 Rises=F Damp=F
 DIIS: error= 2.26D-02 at cycle   2 NSaved=   2.
 NSaved= 2 IEnMin= 2 EnMin=-0.217379427855349     IErMin= 2 ErrMin= 2.26D-02
 ErrMax= 2.26D-02  0.00D+00 EMaxC= 1.00D-01 BMatC= 3.58D-02 BMatP= 2.69D-01
 IDIUse=3 WtCom= 7.74D-01 WtEn= 2.26D-01
 Coeff-Com: -0.470D+00 0.147D+01
 Coeff-En:   0.000D+00 0.100D+01
 Coeff:     -0.364D+00 0.136D+01
 RMSDP=1.40D-02 MaxDP=7.67D-02 DE=-6.60D-01 OVMax= 0.00D+00

 Cycle   3  Pass 1  IDiag  1:
 E=-0.324479655206886     Delta-E=       -0.107100227352 Rises=F Damp=F
 DIIS: error= 5.60D-03 at cycle   3 NSaved=   3.
 NSaved= 3 IEnMin= 3 EnMin=-0.324479655206886     IErMin= 3 ErrMin= 5.60D-03
 ErrMax= 5.60D-03  0.00D+00 EMaxC= 1.00D-01 BMatC= 1.16D-03 BMatP= 3.58D-02
 IDIUse=3 WtCom= 9.44D-01 WtEn= 5.60D-02
 Coeff-Com:  0.964D-01-0.364D+00 0.127D+01
 Coeff-En:   0.000D+00 0.000D+00 0.100D+01
 Coeff:      0.910D-01-0.343D+00 0.125D+01
 RMSDP=3.35D-03 MaxDP=1.99D-02 DE=-1.07D-01 OVMax= 0.00D+00

 Cycle   4  Pass 1  IDiag  3:
 E=-0.330366980144220     Delta-E=       -0.005887324937 Rises=F Damp=F
 DIIS: error= 2.19D-03 at cycle   4 NSaved=   4.
 NSaved= 4 IEnMin= 4 EnMin=-0.330366980144220     IErMin= 4 ErrMin= 2.19D-03
 ErrMax= 2.19D-03  0.00D+00 EMaxC= 1.00D-01 BMatC= 2.11D-04 BMatP= 1.16D-03
 IDIUse=3 WtCom= 9.78D-01 WtEn= 2.19D-02
 Coeff-Com:  0.242D-03 0.271D-01-0.807D+00 0.178D+01
 Coeff-En:   0.000D+00 0.000D+00 0.000D+00 0.100D+01
 Coeff:      0.236D-03 0.265D-01-0.790D+00 0.176D+01
 Fock symm off for IB=2 I1=    1 I=   18 J=   10 Cut=1.00D-07 Err=2.27D-03
 Fock matrix is not symmetric: symmetry in diagonalization turned off.
 Gap=     0.534 Goal=   None    Shift=    0.000
 RMSDP=2.47D-03 MaxDP=1.33D-02 DE=-5.89D-03 OVMax= 2.04D-02

 Cycle   5  Pass 1  IDiag  3:
 E=-0.331793816160882     Delta-E=       -0.001426836017 Rises=F Damp=F
 DIIS: error= 3.23D-04 at cycle   5 NSaved=   5.
 NSaved= 5 IEnMin= 5 EnMin=-0.331793816160882     IErMin= 5 ErrMin= 3.23D-04
 ErrMax= 3.23D-04  0.00D+00 EMaxC= 1.00D-01 BMatC= 4.80D-06 BMatP= 2.11D-04
 IDIUse=3 WtCom= 9.97D-01 WtEn= 3.23D-03
 Coeff-Com:  0.730D-03-0.169D-01 0.447D+00-0.104D+01 0.161D+01
 Coeff-En:   0.000D+00 0.000D+00 0.000D+00 0.000D+00 0.100D+01
 Coeff:      0.728D-03-0.168D-01 0.446D+00-0.104D+01 0.161D+01
 Gap=     0.535 Goal=   None    Shift=    0.000
 RMSDP=3.40D-04 MaxDP=1.78D-03 DE=-1.43D-03 OVMax= 4.52D-03

 Cycle   6  Pass 1  IDiag  3:
 E=-0.331825734596208     Delta-E=       -0.000031918435 Rises=F Damp=F
 DIIS: error= 8.36D-05 at cycle   6 NSaved=   6.
 NSaved= 6 IEnMin= 6 EnMin=-0.331825734596208     IErMin= 6 ErrMin= 8.36D-05
 ErrMax= 8.36D-05  0.00D+00 EMaxC= 1.00D-01 BMatC= 3.93D-07 BMatP= 4.80D-06
 IDIUse=1 WtCom= 1.00D+00 WtEn= 0.00D+00
 Coeff-Com: -0.121D-03 0.688D-02-0.187D+00 0.440D+00-0.864D+00 0.160D+01
 Coeff:     -0.121D-03 0.688D-02-0.187D+00 0.440D+00-0.864D+00 0.160D+01
 Gap=     0.536 Goal=   None    Shift=    0.000
 RMSDP=1.05D-04 MaxDP=6.52D-04 DE=-3.19D-05 OVMax= 1.32D-03

 Cycle   7  Pass 1  IDiag  3:
 E=-0.331828640807458     Delta-E=       -0.000002906211 Rises=F Damp=F
 DIIS: error= 2.93D-05 at cycle   7 NSaved=   7.
 NSaved= 7 IEnMin= 7 EnMin=-0.331828640807458     IErMin= 7 ErrMin= 2.93D-05
 ErrMax= 2.93D-05  0.00D+00 EMaxC= 1.00D-01 BMatC= 4.97D-08 BMatP= 3.93D-07
 IDIUse=1 WtCom= 1.00D+00 WtEn= 0.00D+00
 Coeff-Com:  0.117D-03-0.411D-02 0.986D-01-0.228D+00 0.503D+00-0.128D+01
 Coeff-Com:  0.191D+01
 Coeff:      0.117D-03-0.411D-02 0.986D-01-0.228D+00 0.503D+00-0.128D+01
 Coeff:      0.191D+01
 Gap=     0.536 Goal=   None    Shift=    0.000
 RMSDP=4.20D-05 MaxDP=2.51D-04 DE=-2.91D-06 OVMax= 3.14D-04

 Cycle   8  Pass 1  IDiag  3:
 E=-0.331829020184330     Delta-E=       -0.000000379377 Rises=F Damp=F
 DIIS: error= 6.30D-06 at cycle   8 NSaved=   8.
 NSaved= 8 IEnMin= 8 EnMin=-0.331829020184330     IErMin= 8 ErrMin= 6.30D-06
 ErrMax= 6.30D-06  0.00D+00 EMaxC= 1.00D-01 BMatC= 2.62D-09 BMatP= 4.97D-08
 IDIUse=1 WtCom= 1.00D+00 WtEn= 0.00D+00
 Coeff-Com: -0.637D-04 0.113D-02-0.202D-01 0.444D-01-0.120D+00 0.393D+00
 Coeff-Com: -0.780D+00 0.148D+01
 Coeff:     -0.637D-04 0.113D-02-0.202D-01 0.444D-01-0.120D+00 0.393D+00
 Coeff:     -0.780D+00 0.148D+01
 Gap=     0.536 Goal=   None    Shift=    0.000
 RMSDP=7.85D-06 MaxDP=4.42D-05 DE=-3.79D-07 OVMax= 6.90D-05

 Cycle   9  Pass 1  IDiag  3:
 E=-0.331829035994161     Delta-E=       -0.000000015810 Rises=F Damp=F
 DIIS: error= 1.59D-06 at cycle   9 NSaved=   9.
 NSaved= 9 IEnMin= 9 EnMin=-0.331829035994161     IErMin= 9 ErrMin= 1.59D-06
 ErrMax= 1.59D-06  0.00D+00 EMaxC= 1.00D-01 BMatC= 1.47D-10 BMatP= 2.62D-09
 IDIUse=1 WtCom= 1.00D+00 WtEn= 0.00D+00
 Coeff-Com:  0.170D-04-0.139D-03 0.375D-03 0.135D-03 0.818D-02-0.517D-01
 Coeff-Com:  0.135D+00-0.495D+00 0.140D+01
 Coeff:      0.170D-04-0.139D-03 0.375D-03 0.135D-03 0.818D-02-0.517D-01
 Coeff:      0.135D+00-0.495D+00 0.140D+01
 Gap=     0.536 Goal=   None    Shift=    0.000
 RMSDP=1.72D-06 MaxDP=8.61D-06 DE=-1.58D-08 OVMax= 1.52D-05

 Cycle  10  Pass 1  IDiag  3:
 E=-0.331829036809893     Delta-E=       -0.000000000816 Rises=F Damp=F
 DIIS: error= 3.17D-07 at cycle  10 NSaved=  10.
 NSaved=10 IEnMin=10 EnMin=-0.331829036809893     IErMin=10 ErrMin= 3.17D-07
 ErrMax= 3.17D-07  0.00D+00 EMaxC= 1.00D-01 BMatC= 6.56D-12 BMatP= 1.47D-10
 IDIUse=1 WtCom= 1.00D+00 WtEn= 0.00D+00
 Coeff-Com: -0.593D-05 0.664D-04-0.501D-03 0.766D-03-0.487D-02 0.231D-01
 Coeff-Com: -0.538D-01 0.191D+00-0.657D+00 0.150D+01
 Coeff:     -0.593D-05 0.664D-04-0.501D-03 0.766D-03-0.487D-02 0.231D-01
 Coeff:     -0.538D-01 0.191D+00-0.657D+00 0.150D+01
 Gap=     0.536 Goal=   None    Shift=    0.000
 RMSDP=3.36D-07 MaxDP=1.63D-06 DE=-8.16D-10 OVMax= 2.31D-06

 Cycle  11  Pass 1  IDiag  3:
 E=-0.331829036846045     Delta-E=       -0.000000000036 Rises=F Damp=F
 DIIS: error= 1.15D-07 at cycle  11 NSaved=  11.
 NSaved=11 IEnMin=11 EnMin=-0.331829036846045     IErMin=11 ErrMin= 1.15D-07
 ErrMax= 1.15D-07  0.00D+00 EMaxC= 1.00D-01 BMatC= 4.44D-13 BMatP= 6.56D-12
 IDIUse=1 WtCom= 1.00D+00 WtEn= 0.00D+00
 Coeff-Com:  0.204D-05-0.215D-04 0.839D-04-0.396D-04 0.141D-02-0.777D-02
 Coeff-Com:  0.186D-01-0.715D-01 0.273D+00-0.800D+00 0.159D+01
 Coeff:      0.204D-05-0.215D-04 0.839D-04-0.396D-04 0.141D-02-0.777D-02
 Coeff:      0.186D-01-0.715D-01 0.273D+00-0.800D+00 0.159D+01
 Gap=     0.536 Goal=   None    Shift=    0.000
 RMSDP=9.53D-08 MaxDP=5.45D-07 DE=-3.62D-11 OVMax= 7.32D-07

 Cycle  12  Pass 1  IDiag  3:
 E=-0.331829036849172     Delta-E=       -0.000000000003 Rises=F Damp=F
 DIIS: error= 2.82D-08 at cycle  12 NSaved=  12.
 NSaved=12 IEnMin=12 EnMin=-0.331829036849172     IErMin=12 ErrMin= 2.82D-08
 ErrMax= 2.82D-08  0.00D+00 EMaxC= 1.00D-01 BMatC= 5.16D-14 BMatP= 4.44D-13
 IDIUse=1 WtCom= 1.00D+00 WtEn= 0.00D+00
 Coeff-Com: -0.799D-06 0.381D-05 0.102D-03-0.298D-03 0.730D-04 0.155D-02
 Coeff-Com: -0.493D-02 0.265D-01-0.118D+00 0.397D+00-0.109D+01 0.179D+01
 Coeff:     -0.799D-06 0.381D-05 0.102D-03-0.298D-03 0.730D-04 0.155D-02
 Coeff:     -0.493D-02 0.265D-01-0.118D+00 0.397D+00-0.109D+01 0.179D+01
 Gap=     0.536 Goal=   None    Shift=    0.000
 RMSDP=4.00D-08 MaxDP=2.33D-07 DE=-3.13D-12 OVMax= 2.75D-07

 Cycle  13  Pass 1  IDiag  3:
 E=-0.331829036849399     Delta-E=       -0.000000000000 Rises=F Damp=F
 DIIS: error= 9.34D-09 at cycle  13 NSaved=  13.
 NSaved=13 IEnMin=13 EnMin=-0.331829036849399     IErMin=13 ErrMin= 9.34D-09
 ErrMax= 9.34D-09  0.00D+00 EMaxC= 1.00D-01 BMatC= 3.69D-15 BMatP= 5.16D-14
 IDIUse=1 WtCom= 1.00D+00 WtEn= 0.00D+00
 Coeff-Com:  0.181D-06-0.744D-06-0.257D-04 0.718D-04-0.286D-04-0.290D-03
 Coeff-Com:  0.969D-03-0.578D-02 0.263D-01-0.954D-01 0.338D+00-0.836D+00
 Coeff-Com:  0.157D+01
 Coeff:      0.181D-06-0.744D-06-0.257D-04 0.718D-04-0.286D-04-0.290D-03
 Coeff:      0.969D-03-0.578D-02 0.263D-01-0.954D-01 0.338D+00-0.836D+00
 Coeff:      0.157D+01
 Gap=     0.536 Goal=   None    Shift=    0.000
 RMSDP=1.13D-08 MaxDP=6.21D-08 DE=-2.27D-13 OVMax= 8.22D-08

 Cycle  14  Pass 1  IDiag  3:
 E=-0.331829036849655     Delta-E=       -0.000000000000 Rises=F Damp=F
 DIIS: error= 2.57D-09 at cycle  14 NSaved=  14.
 NSaved=14 IEnMin=14 EnMin=-0.331829036849655     IErMin=14 ErrMin= 2.57D-09
 ErrMax= 2.57D-09  0.00D+00 EMaxC= 1.00D-01 BMatC= 2.03D-16 BMatP= 3.69D-15
 IDIUse=1 WtCom= 1.00D+00 WtEn= 0.00D+00
 Coeff-Com: -0.804D-08 0.851D-07-0.470D-06 0.145D-05-0.724D-05 0.229D-04
 Coeff-Com: -0.453D-04 0.291D-03-0.111D-02 0.600D-02-0.503D-01 0.197D+00
 Coeff-Com: -0.573D+00 0.142D+01
 Coeff:     -0.804D-08 0.851D-07-0.470D-06 0.145D-05-0.724D-05 0.229D-04
 Coeff:     -0.453D-04 0.291D-03-0.111D-02 0.600D-02-0.503D-01 0.197D+00
 Coeff:     -0.573D+00 0.142D+01
 Gap=     0.536 Goal=   None    Shift=    0.000
 RMSDP=2.02D-09 MaxDP=1.85D-08 DE=-2.56D-13 OVMax= 1.71D-08

 Cycle  15  Pass 2  IDiag  1:
 SCF Done:  E(RPM6) = -0.331829036850     A.U. after   15 cycles
            NFock= 14  Conv=0.20D-08     -V/T= 0.9975
 KE=-1.320351046297D+02 PE=-2.614594295008D+02 EE= 1.804981476640D+02
 Leave Link  502 at Fri Sep  6 11:33:46 2024, MaxMem=  1610612736 cpu:               0.4 elap:               0.1
 (Enter /Users/asuyarger/Applications/G16/g16/l601.exe)
 Copying SCF densities to generalized density rwf, IOpCl= 0 IROHF=0.

 **********************************************************************

            Population analysis using the SCF density.

 **********************************************************************

 Orbital symmetries:
       Occupied  (A') (A") (A') (A') (A') (A') (A") (A') (A') (A")
                 (A') (A') (A") (A") (A') (A") (A') (A") (A')
       Virtual   (A') (A') (A') (A") (A') (A") (A')
 The electronic state is 1-A'.
 Alpha  occ. eigenvalues --   -1.57316  -1.56725  -1.56716  -1.55968  -1.02228
 Alpha  occ. eigenvalues --   -0.85202  -0.72600  -0.72221  -0.70540  -0.66040
 Alpha  occ. eigenvalues --   -0.63842  -0.62704  -0.62663  -0.62068  -0.60396
 Alpha  occ. eigenvalues --   -0.58200  -0.57785  -0.51916  -0.49781
 Alpha virt. eigenvalues --    0.03770   0.06217   0.07461   0.07885   0.10198
 Alpha virt. eigenvalues --    0.16072   0.17497
     Molecular Orbital Coefficients:
                           1         2         3         4         5
                           O         O         O         O         O
     Eigenvalues --    -1.57316  -1.56725  -1.56716  -1.55968  -1.02228
   1 1   C  1S          0.08529  -0.00000   0.17964  -0.00186   0.49638
   2        1PX         0.11486   0.00000  -0.10661   0.06422   0.13052
   3        1PY         0.12814  -0.00000   0.02142   0.00761  -0.17734
   4        1PZ         0.00000   0.19280   0.00000   0.00000   0.00000
   5 2   F  1S         -0.08551   0.69285   0.65721  -0.19046  -0.06831
   6        1PX         0.00769   0.02573   0.01928  -0.00050   0.10900
   7        1PY         0.01084  -0.00136  -0.00039  -0.00030  -0.05074
   8        1PZ         0.00261  -0.01928  -0.03833   0.00818  -0.10252
   9 3   F  1S          0.92739  -0.00000   0.18490   0.24741  -0.07831
  10        1PX        -0.02715   0.00000  -0.01870  -0.00225  -0.04930
  11        1PY        -0.04001   0.00000  -0.01170  -0.00792  -0.16572
  12        1PZ         0.00000   0.01615   0.00000   0.00000   0.00000
  13 4   C  1S         -0.02244  -0.00000   0.04735   0.11095   0.62506
  14        1PX         0.03323   0.00000  -0.04276  -0.08468  -0.02565
  15        1PY         0.05677   0.00000  -0.00663  -0.11643   0.14321
  16        1PZ         0.00000   0.01794   0.00000   0.00000   0.00000
  17 5   H  1S         -0.00109  -0.00659   0.01431   0.03081   0.27307
  18 6   H  1S         -0.00109   0.00659   0.01431   0.03081   0.27307
  19 7   F  1S         -0.08551  -0.69285   0.65721  -0.19046  -0.06831
  20        1PX         0.00769  -0.02573   0.01928  -0.00050   0.10900
  21        1PY         0.01084   0.00136  -0.00039  -0.00030  -0.05074
  22        1PZ        -0.00261  -0.01928   0.03833  -0.00818   0.10252
  23 8   F  1S         -0.28400  -0.00000   0.22132   0.90843  -0.10131
  24        1PX        -0.00885  -0.00000   0.00563   0.02635   0.10121
  25        1PY        -0.01312  -0.00000   0.01269   0.03135   0.16825
  26        1PZ         0.00000   0.00246   0.00000   0.00000  -0.00000
                           6         7         8         9        10
                           O         O         O         O         O
     Eigenvalues --    -0.85202  -0.72600  -0.72221  -0.70540  -0.66040
   1 1   C  1S          0.52825  -0.00000   0.00194  -0.01988   0.00000
   2        1PX        -0.12702   0.00000  -0.34051  -0.30900   0.00000
   3        1PY         0.17408   0.00000  -0.35234   0.24090   0.00000
   4        1PZ         0.00000   0.47574   0.00000   0.00000  -0.14110
   5 2   F  1S         -0.09562  -0.09583  -0.04620  -0.03773   0.02229
   6        1PX         0.14542   0.40573  -0.10470  -0.13397  -0.15970
   7        1PY         0.05372  -0.04531  -0.33412   0.25827  -0.10259
   8        1PZ        -0.27674  -0.13413  -0.27362  -0.27840   0.03240
   9 3   F  1S         -0.08790  -0.00000   0.11680   0.00575  -0.00000
  10        1PX        -0.25366  -0.00000   0.21178  -0.34670  -0.00000
  11        1PY        -0.18322  -0.00000   0.39704   0.30858  -0.00000
  12        1PZ         0.00000   0.44327   0.00000   0.00000  -0.34715
  13 4   C  1S         -0.35988  -0.00000  -0.00058   0.11220  -0.00000
  14        1PX        -0.17058   0.00000  -0.24896   0.15951   0.00000
  15        1PY         0.18609   0.00000  -0.03354  -0.30879   0.00000
  16        1PZ         0.00000   0.29137   0.00000   0.00000   0.37871
  17 5   H  1S         -0.22201  -0.14325  -0.08651   0.11432  -0.18597
  18 6   H  1S         -0.22201   0.14325  -0.08651   0.11432   0.18597
  19 7   F  1S         -0.09562   0.09583  -0.04620  -0.03773  -0.02229
  20        1PX         0.14542  -0.40573  -0.10470  -0.13397   0.15970
  21        1PY         0.05372   0.04531  -0.33412   0.25827   0.10259
  22        1PZ         0.27674  -0.13413   0.27362   0.27840   0.03240
  23 8   F  1S          0.07186   0.00000  -0.04366  -0.04648   0.00000
  24        1PX        -0.20392   0.00000  -0.06681   0.37468   0.00000
  25        1PY        -0.10390  -0.00000   0.24518  -0.03740  -0.00000
  26        1PZ         0.00000   0.25211   0.00000   0.00000   0.75619
                          11        12        13        14        15
                           O         O         O         O         O
     Eigenvalues --    -0.63842  -0.62704  -0.62663  -0.62068  -0.60396
   1 1   C  1S         -0.03786  -0.04214   0.00000  -0.00000   0.05047
   2        1PX         0.04959   0.01184  -0.00000   0.00000  -0.04194
   3        1PY         0.04100   0.03147  -0.00000   0.00000   0.01928
   4        1PZ        -0.00000  -0.00000  -0.04201  -0.01847   0.00000
   5 2   F  1S          0.00805   0.00485   0.00738   0.00354  -0.00978
   6        1PX         0.21990  -0.29226  -0.25886  -0.38033   0.21455
   7        1PY         0.11419   0.37060   0.55546  -0.41432   0.03079
   8        1PZ         0.22815  -0.14537  -0.12560  -0.23480   0.03071
   9 3   F  1S         -0.00621  -0.00280   0.00000  -0.00000   0.00272
  10        1PX        -0.42773   0.36078  -0.00000   0.00000   0.32828
  11        1PY         0.31243  -0.28824   0.00000  -0.00000  -0.28160
  12        1PZ        -0.00000   0.00000   0.41162   0.50620   0.00000
  13 4   C  1S          0.05164   0.05388  -0.00000   0.00000  -0.07873
  14        1PX        -0.29132  -0.12537   0.00000  -0.00000  -0.32722
  15        1PY        -0.12600  -0.02254   0.00000  -0.00000  -0.33742
  16        1PZ         0.00000   0.00000   0.02891  -0.00290  -0.00000
  17 5   H  1S         -0.07842  -0.01760  -0.01327   0.00150  -0.16693
  18 6   H  1S         -0.07842  -0.01760   0.01327  -0.00150  -0.16693
  19 7   F  1S          0.00805   0.00485  -0.00738  -0.00354  -0.00978
  20        1PX         0.21990  -0.29226   0.25886   0.38033   0.21455
  21        1PY         0.11419   0.37060  -0.55546   0.41432   0.03079
  22        1PZ        -0.22815   0.14537  -0.12560  -0.23480  -0.03071
  23 8   F  1S         -0.05933  -0.02321   0.00000  -0.00000  -0.07980
  24        1PX        -0.19758  -0.30738   0.00000  -0.00000   0.63621
  25        1PY         0.57318   0.42573  -0.00000   0.00000   0.13500
  26        1PZ         0.00000   0.00000   0.21183  -0.02203   0.00000
                          16        17        18        19        20
                           O         O         O         O         V
     Eigenvalues --    -0.58200  -0.57785  -0.51916  -0.49781   0.03770
   1 1   C  1S         -0.00000  -0.00283   0.00000  -0.11832   0.63990
   2        1PX         0.00000  -0.24383  -0.00000  -0.23873   0.04327
   3        1PY         0.00000  -0.16636   0.00000   0.35315   0.07872
   4        1PZ        -0.29293  -0.00000  -0.08220  -0.00000   0.00000
   5 2   F  1S          0.04853  -0.02732   0.00804  -0.01255  -0.03745
   6        1PX         0.06653   0.40220  -0.09999   0.21915  -0.18540
   7        1PY        -0.07007   0.30757   0.04710  -0.24279  -0.01792
   8        1PZ         0.55235  -0.01445   0.12611  -0.09352   0.26436
   9 3   F  1S         -0.00000   0.05407   0.00000  -0.01147  -0.05351
  10        1PX        -0.00000   0.42663   0.00000   0.07750   0.25472
  11        1PY        -0.00000   0.32598  -0.00000  -0.29434   0.30151
  12        1PZ         0.49350   0.00000   0.02322  -0.00000   0.00000
  13 4   C  1S         -0.00000   0.02155  -0.00000  -0.05048  -0.21317
  14        1PX        -0.00000   0.15486   0.00000   0.37299   0.25900
  15        1PY        -0.00000   0.12613  -0.00000  -0.36355  -0.30334
  16        1PZ        -0.05821  -0.00000   0.59764  -0.00000   0.00000
  17 5   H  1S          0.03458   0.07397  -0.38377   0.16308   0.01398
  18 6   H  1S         -0.03458   0.07397   0.38377   0.16308   0.01398
  19 7   F  1S         -0.04853  -0.02732  -0.00804  -0.01255  -0.03745
  20        1PX        -0.06653   0.40220   0.09999   0.21915  -0.18540
  21        1PY         0.07007   0.30757  -0.04710  -0.24279  -0.01792
  22        1PZ         0.55235   0.01445   0.12611   0.09352  -0.26436
  23 8   F  1S         -0.00000   0.03073   0.00000  -0.00690   0.00259
  24        1PX         0.00000  -0.15906  -0.00000  -0.28270  -0.01177
  25        1PY         0.00000  -0.17171   0.00000   0.26977   0.08225
  26        1PZ         0.17695   0.00000  -0.53348   0.00000  -0.00000
                          21        22        23        24        25
                           V         V         V         V         V
     Eigenvalues --     0.06217   0.07461   0.07885   0.10198   0.16072
   1 1   C  1S         -0.06832   0.01807  -0.00000   0.01450  -0.00000
   2        1PX         0.44080  -0.50323  -0.00000  -0.38807  -0.00000
   3        1PY         0.37608   0.55043  -0.00000  -0.36176   0.00000
   4        1PZ         0.00000   0.00000   0.77726  -0.00000  -0.13335
   5 2   F  1S          0.03834  -0.04809  -0.08733  -0.02887   0.01286
   6        1PX         0.06469  -0.08994  -0.28611  -0.03715   0.03566
   7        1PY        -0.06413  -0.06602   0.00880   0.04783   0.00353
   8        1PZ        -0.19251   0.22606   0.29534   0.13162  -0.03825
   9 3   F  1S         -0.07751  -0.02296   0.00000   0.06715   0.00000
  10        1PX         0.19740   0.14679  -0.00000  -0.18085   0.00000
  11        1PY         0.29344   0.02965  -0.00000  -0.23097  -0.00000
  12        1PZ         0.00000  -0.00000  -0.11274   0.00000   0.01685
  13 4   C  1S         -0.10744   0.20229  -0.00000  -0.24101   0.00000
  14        1PX         0.22068  -0.29524   0.00000   0.40298   0.00000
  15        1PY         0.41527   0.38892   0.00000   0.36824  -0.00000
  16        1PZ         0.00000  -0.00000   0.03837   0.00000   0.63913
  17 5   H  1S         -0.04318   0.05444   0.11845  -0.00179   0.53119
  18 6   H  1S         -0.04318   0.05444  -0.11845  -0.00179  -0.53119
  19 7   F  1S          0.03834  -0.04809   0.08733  -0.02887  -0.01286
  20        1PX         0.06469  -0.08994   0.28611  -0.03715  -0.03566
  21        1PY        -0.06413  -0.06602  -0.00880   0.04783  -0.00353
  22        1PZ         0.19251  -0.22606   0.29534  -0.13162  -0.03825
  23 8   F  1S          0.07938   0.00731   0.00000   0.08845  -0.00000
  24        1PX         0.26790   0.04650   0.00000   0.28576  -0.00000
  25        1PY         0.34693  -0.03592   0.00000   0.37222  -0.00000
  26        1PZ         0.00000   0.00000  -0.00630   0.00000  -0.05742
                          26
                           V
     Eigenvalues --     0.17497
   1 1   C  1S         -0.01296
   2        1PX         0.07685
   3        1PY        -0.04722
   4        1PZ        -0.00000
   5 2   F  1S          0.00377
   6        1PX         0.00219
   7        1PY         0.01127
   8        1PZ        -0.02310
   9 3   F  1S         -0.00260
  10        1PX        -0.00852
  11        1PY         0.01269
  12        1PZ         0.00000
  13 4   C  1S         -0.53044
  14        1PX        -0.36962
  15        1PY         0.04392
  16        1PZ         0.00000
  17 5   H  1S          0.53200
  18 6   H  1S          0.53200
  19 7   F  1S          0.00377
  20        1PX         0.00219
  21        1PY         0.01127
  22        1PZ         0.02310
  23 8   F  1S         -0.00505
  24        1PX         0.05724
  25        1PY         0.02904
  26        1PZ        -0.00000
     Density Matrix:
                           1         2         3         4         5
   1 1   C  1S          1.17031
   2        1PX         0.03629   0.78816
   3        1PY        -0.05999  -0.05789   0.83260
   4        1PZ         0.00000   0.00000  -0.00000   0.75615
   5 2   F  1S          0.05585  -0.10195   0.00947   0.13919   1.97235
   6        1PX         0.25050  -0.16068   0.05287   0.45428  -0.08055
   7        1PY         0.01546   0.02703   0.15941  -0.01274   0.00135
   8        1PZ        -0.37722   0.48006  -0.05265  -0.46931   0.11665
   9 3   F  1S          0.05671   0.10237   0.14033   0.00000   0.00362
  10        1PX        -0.29930  -0.18739  -0.48182   0.00000   0.00768
  11        1PY        -0.33982  -0.43617  -0.46674  -0.00000  -0.01050
  12        1PZ        -0.00000  -0.00000  -0.00000   0.17975  -0.02012
  13 4   C  1S          0.24407   0.21124  -0.33279  -0.00000   0.00182
  14        1PX        -0.31191  -0.14453   0.37491   0.00000   0.00014
  15        1PY         0.42135   0.33064  -0.42215  -0.00000   0.00377
  16        1PZ         0.00000   0.00000  -0.00000   0.11081  -0.00974
  17 5   H  1S         -0.01192   0.00848   0.01930  -0.04247   0.01250
  18 6   H  1S         -0.01192   0.00848   0.01930   0.04247  -0.00155
  19 7   F  1S          0.05585  -0.10195   0.00947  -0.13919   0.00352
  20        1PX         0.25050  -0.16068   0.05287  -0.45428   0.02123
  21        1PY         0.01546   0.02703   0.15941   0.01274  -0.00154
  22        1PZ         0.37722  -0.48006   0.05265  -0.46931  -0.01152
  23 8   F  1S          0.00457   0.00658  -0.00465   0.00000  -0.00004
  24        1PX         0.04318   0.02463  -0.03868   0.00000  -0.00089
  25        1PY        -0.06661  -0.06470   0.03769  -0.00000  -0.00263
  26        1PZ        -0.00000  -0.00000   0.00000  -0.00552   0.00038
                           6         7         8         9        10
   6        1PX         1.73767
   7        1PY        -0.00194   1.97741
   8        1PZ         0.34521  -0.00236   1.47082
   9 3   F  1S         -0.00894  -0.02125  -0.00896   1.97217
  10        1PX         0.08191   0.07132  -0.07783   0.08885   1.68365
  11        1PY         0.06195   0.07417   0.00155   0.11021  -0.36148
  12        1PZ        -0.06571   0.00187   0.06788   0.00000  -0.00000
  13 4   C  1S         -0.04434   0.04031   0.01881  -0.00058  -0.00458
  14        1PX         0.04594  -0.03162  -0.04164  -0.00767   0.00706
  15        1PY        -0.06908   0.05753   0.04952   0.00054   0.01034
  16        1PZ        -0.02362  -0.00518   0.02622  -0.00000   0.00000
  17 5   H  1S          0.04800  -0.01550  -0.05291   0.00031   0.00236
  18 6   H  1S         -0.01180  -0.00384   0.00576   0.00031   0.00236
  19 7   F  1S          0.02123  -0.00154   0.01152   0.00362   0.00768
  20        1PX         0.07020  -0.01150   0.00175  -0.00894   0.08191
  21        1PY        -0.01150  -0.02223   0.00749  -0.02125   0.07132
  22        1PZ        -0.00175  -0.00749   0.17444   0.00896   0.07783
  23 8   F  1S         -0.00140   0.00289   0.00237   0.00101  -0.00290
  24        1PX        -0.00968   0.01145   0.01577   0.00433  -0.00909
  25        1PY         0.00668   0.00644   0.00969   0.01110  -0.03320
  26        1PZ         0.00049   0.00052  -0.00067   0.00000  -0.00000
                          11        12        13        14        15
  11        1PY         1.53719
  12        1PZ        -0.00000   1.97401
  13 4   C  1S          0.08174   0.00000   1.12529
  14        1PX        -0.07265  -0.00000   0.07941   0.99608
  15        1PY         0.08513   0.00000   0.02665  -0.06083   0.89350
  16        1PZ         0.00000  -0.01288   0.00000   0.00000  -0.00000
  17 5   H  1S         -0.00065   0.00881   0.53818   0.43867  -0.04341
  18 6   H  1S         -0.00065  -0.00881   0.53818   0.43867  -0.04341
  19 7   F  1S         -0.01050   0.02012   0.00182   0.00014   0.00377
  20        1PX         0.06195   0.06571  -0.04434   0.04594  -0.06908
  21        1PY         0.07417  -0.00187   0.04031  -0.03162   0.05753
  22        1PZ        -0.00155   0.06788  -0.01881   0.04164  -0.04952
  23 8   F  1S         -0.00760   0.00000   0.05248  -0.10708  -0.13474
  24        1PX        -0.02234  -0.00000   0.23220  -0.27269  -0.48130
  25        1PY        -0.07987  -0.00000   0.33437  -0.49546  -0.48698
  26        1PZ        -0.00000   0.00051  -0.00000  -0.00000  -0.00000
                          16        17        18        19        20
  16        1PZ         1.18009
  17 5   H  1S         -0.68809   0.83152
  18 6   H  1S          0.68809   0.01630   0.83152
  19 7   F  1S          0.00974  -0.00155   0.01250   1.97235
  20        1PX         0.02362  -0.01180   0.04800  -0.08055   1.73767
  21        1PY         0.00518  -0.00384  -0.01550   0.00135  -0.00194
  22        1PZ         0.02622  -0.00576   0.05291  -0.11665  -0.34521
  23 8   F  1S          0.00000   0.01168   0.01168  -0.00004  -0.00140
  24        1PX         0.00000  -0.04148  -0.04148  -0.00089  -0.00968
  25        1PY        -0.00000   0.00200   0.00200  -0.00263   0.00668
  26        1PZ         0.07389   0.06250  -0.06250  -0.00038  -0.00049
                          21        22        23        24        25
  21        1PY         1.97741
  22        1PZ         0.00236   1.47082
  23 8   F  1S          0.00289  -0.00237   1.97158
  24        1PX         0.01145  -0.01577  -0.09312   1.68198
  25        1PY         0.00644  -0.00969  -0.12053  -0.39667   1.46439
  26        1PZ        -0.00052  -0.00067  -0.00000  -0.00000  -0.00000
                          26
  26        1PZ         1.99333
    Full Mulliken population analysis:
                           1         2         3         4         5
   1 1   C  1S          1.17031
   2        1PX         0.00000   0.78816
   3        1PY         0.00000   0.00000   0.83260
   4        1PZ         0.00000   0.00000   0.00000   0.75615
   5 2   F  1S          0.00000   0.00000   0.00000   0.00000   1.97235
   6        1PX         0.00000   0.00000   0.00000   0.00000   0.00000
   7        1PY         0.00000   0.00000   0.00000   0.00000   0.00000
   8        1PZ         0.00000   0.00000   0.00000   0.00000   0.00000
   9 3   F  1S          0.00000   0.00000   0.00000   0.00000   0.00000
  10        1PX         0.00000   0.00000   0.00000   0.00000   0.00000
  11        1PY         0.00000   0.00000   0.00000   0.00000   0.00000
  12        1PZ         0.00000   0.00000   0.00000   0.00000   0.00000
  13 4   C  1S          0.00000   0.00000   0.00000   0.00000   0.00000
  14        1PX         0.00000   0.00000   0.00000   0.00000   0.00000
  15        1PY         0.00000   0.00000   0.00000   0.00000   0.00000
  16        1PZ         0.00000   0.00000   0.00000   0.00000   0.00000
  17 5   H  1S          0.00000   0.00000   0.00000   0.00000   0.00000
  18 6   H  1S          0.00000   0.00000   0.00000   0.00000   0.00000
  19 7   F  1S          0.00000   0.00000   0.00000   0.00000   0.00000
  20        1PX         0.00000   0.00000   0.00000   0.00000   0.00000
  21        1PY         0.00000   0.00000   0.00000   0.00000   0.00000
  22        1PZ         0.00000   0.00000   0.00000   0.00000   0.00000
  23 8   F  1S          0.00000   0.00000   0.00000   0.00000   0.00000
  24        1PX         0.00000   0.00000   0.00000   0.00000   0.00000
  25        1PY         0.00000   0.00000   0.00000   0.00000   0.00000
  26        1PZ         0.00000   0.00000   0.00000   0.00000   0.00000
                           6         7         8         9        10
   6        1PX         1.73767
   7        1PY         0.00000   1.97741
   8        1PZ         0.00000   0.00000   1.47082
   9 3   F  1S          0.00000   0.00000   0.00000   1.97217
  10        1PX         0.00000   0.00000   0.00000   0.00000   1.68365
  11        1PY         0.00000   0.00000   0.00000   0.00000   0.00000
  12        1PZ         0.00000   0.00000   0.00000   0.00000   0.00000
  13 4   C  1S          0.00000   0.00000   0.00000   0.00000   0.00000
  14        1PX         0.00000   0.00000   0.00000   0.00000   0.00000
  15        1PY         0.00000   0.00000   0.00000   0.00000   0.00000
  16        1PZ         0.00000   0.00000   0.00000   0.00000   0.00000
  17 5   H  1S          0.00000   0.00000   0.00000   0.00000   0.00000
  18 6   H  1S          0.00000   0.00000   0.00000   0.00000   0.00000
  19 7   F  1S          0.00000   0.00000   0.00000   0.00000   0.00000
  20        1PX         0.00000   0.00000   0.00000   0.00000   0.00000
  21        1PY         0.00000   0.00000   0.00000   0.00000   0.00000
  22        1PZ         0.00000   0.00000   0.00000   0.00000   0.00000
  23 8   F  1S          0.00000   0.00000   0.00000   0.00000   0.00000
  24        1PX         0.00000   0.00000   0.00000   0.00000   0.00000
  25        1PY         0.00000   0.00000   0.00000   0.00000   0.00000
  26        1PZ         0.00000   0.00000   0.00000   0.00000   0.00000
                          11        12        13        14        15
  11        1PY         1.53719
  12        1PZ         0.00000   1.97401
  13 4   C  1S          0.00000   0.00000   1.12529
  14        1PX         0.00000   0.00000   0.00000   0.99608
  15        1PY         0.00000   0.00000   0.00000   0.00000   0.89350
  16        1PZ         0.00000   0.00000   0.00000   0.00000   0.00000
  17 5   H  1S          0.00000   0.00000   0.00000   0.00000   0.00000
  18 6   H  1S          0.00000   0.00000   0.00000   0.00000   0.00000
  19 7   F  1S          0.00000   0.00000   0.00000   0.00000   0.00000
  20        1PX         0.00000   0.00000   0.00000   0.00000   0.00000
  21        1PY         0.00000   0.00000   0.00000   0.00000   0.00000
  22        1PZ         0.00000   0.00000   0.00000   0.00000   0.00000
  23 8   F  1S          0.00000   0.00000   0.00000   0.00000   0.00000
  24        1PX         0.00000   0.00000   0.00000   0.00000   0.00000
  25        1PY         0.00000   0.00000   0.00000   0.00000   0.00000
  26        1PZ         0.00000   0.00000   0.00000   0.00000   0.00000
                          16        17        18        19        20
  16        1PZ         1.18009
  17 5   H  1S          0.00000   0.83152
  18 6   H  1S          0.00000   0.00000   0.83152
  19 7   F  1S          0.00000   0.00000   0.00000   1.97235
  20        1PX         0.00000   0.00000   0.00000   0.00000   1.73767
  21        1PY         0.00000   0.00000   0.00000   0.00000   0.00000
  22        1PZ         0.00000   0.00000   0.00000   0.00000   0.00000
  23 8   F  1S          0.00000   0.00000   0.00000   0.00000   0.00000
  24        1PX         0.00000   0.00000   0.00000   0.00000   0.00000
  25        1PY         0.00000   0.00000   0.00000   0.00000   0.00000
  26        1PZ         0.00000   0.00000   0.00000   0.00000   0.00000
                          21        22        23        24        25
  21        1PY         1.97741
  22        1PZ         0.00000   1.47082
  23 8   F  1S          0.00000   0.00000   1.97158
  24        1PX         0.00000   0.00000   0.00000   1.68198
  25        1PY         0.00000   0.00000   0.00000   0.00000   1.46439
  26        1PZ         0.00000   0.00000   0.00000   0.00000   0.00000
                          26
  26        1PZ         1.99333
     Gross orbital populations:
                           1
   1 1   C  1S          1.17031
   2        1PX         0.78816
   3        1PY         0.83260
   4        1PZ         0.75615
   5 2   F  1S          1.97235
   6        1PX         1.73767
   7        1PY         1.97741
   8        1PZ         1.47082
   9 3   F  1S          1.97217
  10        1PX         1.68365
  11        1PY         1.53719
  12        1PZ         1.97401
  13 4   C  1S          1.12529
  14        1PX         0.99608
  15        1PY         0.89350
  16        1PZ         1.18009
  17 5   H  1S          0.83152
  18 6   H  1S          0.83152
  19 7   F  1S          1.97235
  20        1PX         1.73767
  21        1PY         1.97741
  22        1PZ         1.47082
  23 8   F  1S          1.97158
  24        1PX         1.68198
  25        1PY         1.46439
  26        1PZ         1.99333
          Condensed to atoms (all electrons):
               1          2          3          4          5          6
     1  C    3.547225   0.000000   0.000000   0.000000   0.000000   0.000000
     2  F    0.000000   7.158239   0.000000   0.000000   0.000000   0.000000
     3  F    0.000000   0.000000   7.167024   0.000000   0.000000   0.000000
     4  C    0.000000   0.000000   0.000000   4.194965   0.000000   0.000000
     5  H    0.000000   0.000000   0.000000   0.000000   0.831519   0.000000
     6  H    0.000000   0.000000   0.000000   0.000000   0.000000   0.831519
     7  F    0.000000   0.000000   0.000000   0.000000   0.000000   0.000000
     8  F    0.000000   0.000000   0.000000   0.000000   0.000000   0.000000
               7          8
     1  C    0.000000   0.000000
     2  F    0.000000   0.000000
     3  F    0.000000   0.000000
     4  C    0.000000   0.000000
     5  H    0.000000   0.000000
     6  H    0.000000   0.000000
     7  F    7.158239   0.000000
     8  F    0.000000   7.111270
 Mulliken charges:
               1
     1  C    0.452775
     2  F   -0.158239
     3  F   -0.167024
     4  C   -0.194965
     5  H    0.168481
     6  H    0.168481
     7  F   -0.158239
     8  F   -0.111270
 Sum of Mulliken charges =   0.00000
 Mulliken charges with hydrogens summed into heavy atoms:
               1
     1  C    0.452775
     2  F   -0.158239
     3  F   -0.167024
     4  C    0.141998
     7  F   -0.158239
     8  F   -0.111270
 Charge=              0.0000 electrons
 Dipole moment (field-independent basis, Debye):
    X=              1.8347    Y=             -0.4414    Z=             -0.0000  Tot=              1.8871
 N-N= 2.126645574297D+02 E-N=-2.614594294808D+02  KE=-1.320351046297D+02
 Symmetry A'   KE=-8.430466543504D+01
 Symmetry A"   KE=-4.773043919469D+01
 StAtR1:  DoIntr=F IAtCor=3 NETot=      38 Failed=F Sum=  1.20D+01 SumC=  0.00D+00
 There are a total of      181992 grid points.
 ElSum from          density=       43.0847779335
 ElSum from atomic densities=       49.9999996453

 Hirshfeld populations at iteration   1 (CX, CA, CB, DipXYZ):
               1          2          3          4          5          6
     1  C    0.000000   1.741452   1.741452  -1.025481   1.217213  -0.000000
     2  F    0.000000   3.961592   3.961592  -0.479306   0.144668   0.474092
     3  F    0.000000   3.984617   3.984617   0.227612   0.685049  -0.000000
     4  C    0.000000   2.595920   2.595920  -0.762135  -0.735779  -0.000000
     5  H    0.000002   0.614057   0.614057  -0.214331   0.017400   0.003385
     6  H    0.000002   0.614057   0.614057  -0.214331   0.017400  -0.003385
     7  F    0.000000   3.961592   3.961592  -0.479306   0.144668  -0.474092
     8  F    0.000000   4.069101   4.069101  -0.660322  -0.640505  -0.000000
       Tot   0.000005  21.542389  21.542389  -3.607600   0.850115  -0.000000

 Dip from Atomic Chgs             -1.664699   2.945091  -0.000000
         Total Dipole             -5.272299   3.795206  -0.000000

 Hirshfeld charges, spin densities, dipoles, and CM5 charges using IRadAn=      5:
              Q-H        S-H        Dx         Dy         Dz        Q-CM5   
     1  C    0.517096   0.000000  -1.025481   1.217213  -0.000000   0.566523
     2  F   -0.923184   0.000000  -0.479306   0.144668   0.474092  -0.944206
     3  F   -0.969235   0.000000   0.227612   0.685049  -0.000000  -0.991077
     4  C   -1.191840   0.000000  -0.762135  -0.735779  -0.000000  -1.269452
     5  H   -0.228115   0.000000  -0.214331   0.017400   0.003385  -0.167237
     6  H   -0.228115   0.000000  -0.214331   0.017400  -0.003385  -0.167237
     7  F   -0.923184   0.000000  -0.479306   0.144668  -0.474092  -0.944206
     8  F   -1.138202   0.000000  -0.660322  -0.640505  -0.000000  -1.167885
       Tot  -5.084778   0.000000  -3.607600   0.850115  -0.000000  -5.084778
 Hirshfeld charges with hydrogens summed into heavy atoms:
              Q-H       Q-CM5   
     1  C    0.517096   0.566523
     2  F   -0.923184  -0.944206
     3  F   -0.969235  -0.991077
     4  C   -1.648070  -1.603927
     7  F   -0.923184  -0.944206
     8  F   -1.138202  -1.167885
 
 EQQ= 0.000000000000E+00 EQD= 0.000000000000E+00 EDD= 0.220846236877    
 EQQ+QD+DD= 0.220846236877    
 
 Orbital energies and kinetic energies (alpha):
                                 1                 2
   1         O                -1.573156         -5.080158
   2         O                -1.567255         -5.088567
   3         O                -1.567163         -5.062396
   4         O                -1.559678         -5.083456
   5         O                -1.022283         -2.290640
   6         O                -0.852024         -2.643696
   7         O                -0.726002         -3.018361
   8         O                -0.722206         -3.115202
   9         O                -0.705403         -3.069415
  10         O                -0.660398         -3.137724
  11         O                -0.638421         -3.409136
  12         O                -0.627044         -3.590905
  13         O                -0.626631         -3.624054
  14         O                -0.620681         -3.623007
  15         O                -0.603957         -3.021505
  16         O                -0.582002         -3.447176
  17         O                -0.577847         -3.354148
  18         O                -0.519161         -1.926332
  19         O                -0.497807         -2.431676
  20         V                 0.037703         -2.204645
  21         V                 0.062167         -2.192718
  22         V                 0.074612         -1.625641
  23         V                 0.078848         -2.024354
  24         V                 0.101985         -2.054412
  25         V                 0.160724         -0.698738
  26         V                 0.174969         -0.742849
 Total kinetic energy from orbitals=-1.320351046297D+02
 Leave Link  601 at Fri Sep  6 11:33:47 2024, MaxMem=  1610612736 cpu:               0.6 elap:               0.1
 (Enter /Users/asuyarger/Applications/G16/g16/l607.exe)
 ******************************Gaussian NBO Version 3.1******************************
             N A T U R A L   A T O M I C   O R B I T A L   A N D
          N A T U R A L   B O N D   O R B I T A L   A N A L Y S I S
 ******************************Gaussian NBO Version 3.1******************************
       /RESON  / : Allow strongly delocalized NBO set

 Analyzing the SCF density

 Job title: R134a PM6 Opt Freq - Full - NBO                                 

 Storage needed:      2254 in NPA,      2850 in NBO (1610612336 available)
 GSVD:  LWork=        -884 too small for GESVD, short by        3770 words or        3770 for optimal perf.


 NATURAL POPULATIONS:  Natural atomic orbital occupancies 
                                                          
   NAO  Atom  No  lang   Type(AO)    Occupancy      Energy
 ----------------------------------------------------------
     1    C    1  S      Val( 2S)     1.17031      -0.54668
     2    C    1  px     Val( 2p)     0.78816      -0.24526
     3    C    1  py     Val( 2p)     0.83260      -0.24983
     4    C    1  pz     Val( 2p)     0.75615      -0.23999

     5    F    2  S      Val( 2S)     1.97235      -1.52046
     6    F    2  px     Val( 2p)     1.73767      -0.54900
     7    F    2  py     Val( 2p)     1.97741      -0.62346
     8    F    2  pz     Val( 2p)     1.47082      -0.46522

     9    F    3  S      Val( 2S)     1.97217      -1.52557
    10    F    3  px     Val( 2p)     1.68365      -0.53805
    11    F    3  py     Val( 2p)     1.53719      -0.49306
    12    F    3  pz     Val( 2p)     1.97401      -0.62883

    13    C    4  S      Val( 2S)     1.12529      -0.49031
    14    C    4  px     Val( 2p)     0.99608      -0.26325
    15    C    4  py     Val( 2p)     0.89350      -0.25939
    16    C    4  pz     Val( 2p)     1.18009      -0.27902

    17    H    5  S      Val( 1S)     0.83152      -0.19076

    18    H    6  S      Val( 1S)     0.83152      -0.19076

    19    F    7  S      Val( 2S)     1.97235      -1.52046
    20    F    7  px     Val( 2p)     1.73767      -0.54900
    21    F    7  py     Val( 2p)     1.97741      -0.62346
    22    F    7  pz     Val( 2p)     1.47082      -0.46522

    23    F    8  S      Val( 2S)     1.97158      -1.51435
    24    F    8  px     Val( 2p)     1.68198      -0.51891
    25    F    8  py     Val( 2p)     1.46439      -0.45015
    26    F    8  pz     Val( 2p)     1.99333      -0.61765

 [ 12 electrons found in the effective core potential]


 Summary of Natural Population Analysis:                  
                                                          
                                       Natural Population 
                Natural  -----------------------------------------------
    Atom  No    Charge         Core      Valence    Rydberg      Total
 -----------------------------------------------------------------------
      C    1    0.45277      2.00000     3.54723    0.00000     5.54723
      F    2   -0.15824      2.00000     7.15824    0.00000     9.15824
      F    3   -0.16702      2.00000     7.16702    0.00000     9.16702
      C    4   -0.19496      2.00000     4.19496    0.00000     6.19496
      H    5    0.16848      0.00000     0.83152    0.00000     0.83152
      H    6    0.16848      0.00000     0.83152    0.00000     0.83152
      F    7   -0.15824      2.00000     7.15824    0.00000     9.15824
      F    8   -0.11127      2.00000     7.11127    0.00000     9.11127
 =======================================================================
   * Total *    0.00000     12.00000    38.00000    0.00000    50.00000

                                 Natural Population      
 --------------------------------------------------------
   Effective Core            12.00000
   Valence                   38.00000 (100.0000% of  38)
   Natural Minimal Basis     50.00000 (100.0000% of  50)
   Natural Rydberg Basis      0.00000 (  0.0000% of  50)
 --------------------------------------------------------

    Atom  No          Natural Electron Configuration
 ----------------------------------------------------------------------------
      C    1      [core]2S( 1.17)2p( 2.38)
      F    2      [core]2S( 1.97)2p( 5.19)
      F    3      [core]2S( 1.97)2p( 5.19)
      C    4      [core]2S( 1.13)2p( 3.07)
      H    5            1S( 0.83)
      H    6            1S( 0.83)
      F    7      [core]2S( 1.97)2p( 5.19)
      F    8      [core]2S( 1.97)2p( 5.14)


 NATURAL BOND ORBITAL ANALYSIS:

                       Occupancies       Lewis Structure    Low   High
           Occ.    -------------------  -----------------   occ   occ
  Cycle   Thresh.   Lewis   Non-Lewis     CR  BD  3C  LP    (L)   (NL)   Dev
 =============================================================================
   1(1)    1.90    49.74550   0.25450      0   7   0  12     0      0    0.04
 -----------------------------------------------------------------------------

 Structure accepted: No low occupancy Lewis orbitals

           --- Apparent excited state configuration ---
 The following "inverted" NBO labels reflect the actual hybrid overlap:

                 NBO  20 has been relabelled BD 

                 NBO  21 has been relabelled BD 

                 NBO  22 has been relabelled BD 

                 NBO  23 has been relabelled BD 

                 NBO  24 has been relabelled BD 

                 NBO  25 has been relabelled BD 

                 NBO  26 has been relabelled BD 

                 NBO  10 has been relabelled LP*

                 NBO  16 has been relabelled LP*

                 NBO  13 has been relabelled LP*

                 NBO   9 has been relabelled LP*

                 NBO  15 has been relabelled LP*

                 NBO  12 has been relabelled LP*

                 NBO  19 has been relabelled LP*

 --------------------------------------------------------
   Effective Core           12.00000
   Valence Lewis            24.15902 ( 63.576% of  38)
  ==================       ============================
   Total Lewis              36.15902 ( 72.318% of  50)
  -----------------------------------------------------
   Valence non-Lewis        13.84098 ( 27.682% of  50)
   Rydberg non-Lewis         0.00000 (  0.000% of  50)
  ==================       ============================
   Total non-Lewis          13.84098 ( 27.682% of  50)
 --------------------------------------------------------


       (Occupancy)   Bond orbital/ Coefficients/ Hybrids
 ---------------------------------------------------------------------------------
     1. (1.98669) BD ( 1) C   1 - F   2  
                ( 40.44%)   0.6359* C   1 s( 22.25%)p 3.49( 77.75%)
                                            0.4717 -0.5231  0.0626  0.7071
                ( 59.56%)   0.7717* F   2 s(  3.32%)p29.08( 96.68%)
                                            0.1823  0.5560 -0.0012 -0.8109
     2. (1.98530) BD ( 1) C   1 - F   3  
                ( 40.03%)   0.6327* C   1 s( 22.53%)p 3.44( 77.47%)
                                            0.4746  0.5135  0.7149  0.0000
                ( 59.97%)   0.7744* F   3 s(  3.38%)p28.59( 96.62%)
                                            0.1838 -0.6223 -0.7609  0.0000
     3. (1.97965) BD ( 1) C   1 - C   4  
                ( 51.02%)   0.7143* C   1 s( 32.98%)p 2.03( 67.02%)
                                            0.5743  0.4349 -0.6936  0.0000
                ( 48.98%)   0.6999* C   4 s( 22.69%)p 3.41( 77.31%)
                                            0.4763 -0.5181  0.7104  0.0000
     4. (1.98669) BD ( 1) C   1 - F   7  
                ( 40.44%)   0.6359* C   1 s( 22.25%)p 3.49( 77.75%)
                                            0.4717 -0.5231  0.0626 -0.7071
                ( 59.56%)   0.7717* F   7 s(  3.32%)p29.08( 96.68%)
                                            0.1823  0.5560 -0.0012  0.8109
     5. (1.99157) BD ( 1) C   4 - H   5  
                ( 58.43%)   0.7644* C   4 s( 29.83%)p 2.35( 70.17%)
                                            0.5462  0.4473 -0.0400 -0.7071
                ( 41.57%)   0.6447* H   5 s(100.00%)
                                            1.0000
     6. (1.99157) BD ( 1) C   4 - H   6  
                ( 58.43%)   0.7644* C   4 s( 29.83%)p 2.35( 70.17%)
                                            0.5462  0.4473 -0.0400  0.7071
                ( 41.57%)   0.6447* H   6 s(100.00%)
                                            1.0000
     7. (1.99427) BD ( 1) C   4 - F   8  
                ( 43.24%)   0.6576* C   4 s( 17.65%)p 4.67( 82.35%)
                                            0.4201 -0.5757 -0.7015  0.0000
                ( 56.76%)   0.7534* F   8 s(  3.21%)p30.18( 96.79%)
                                            0.1791  0.5972  0.7818  0.0000
     8. (1.99872) LP ( 1) F   2           s( 96.28%)p 0.04(  3.72%)
                                            0.9812 -0.1245  0.0584  0.1352
     9. (1.97910) LP*( 2) F   2           s(  0.39%)p99.99( 99.61%)
                                            0.0622  0.4204 -0.8528  0.3036
    10. (1.97256) LP*( 3) F   2           s(  0.01%)p 1.00( 99.99%)
                                            0.0077 -0.7061 -0.5190 -0.4817
    11. (1.99869) LP ( 1) F   3           s( 96.38%)p 0.04(  3.62%)
                                            0.9817  0.0777  0.1736  0.0000
    12. (1.97920) LP*( 2) F   3           s(  0.24%)p99.99( 99.76%)
                                            0.0489  0.7789 -0.6252  0.0000
    13. (1.97401) LP*( 3) F   3           s(  0.00%)p 1.00(100.00%)
                                            0.0000  0.0000  0.0000  1.0000
    14. (1.99872) LP ( 1) F   7           s( 96.28%)p 0.04(  3.72%)
                                            0.9812 -0.1245  0.0584 -0.1352
    15. (1.97910) LP*( 2) F   7           s(  0.39%)p99.99( 99.61%)
                                            0.0622  0.4204 -0.8528 -0.3036
    16. (1.97256) LP*( 3) F   7           s(  0.01%)p 1.00( 99.99%)
                                            0.0077 -0.7061 -0.5190  0.4817
    17. (1.99934) LP ( 1) F   8           s( 96.41%)p 0.04(  3.59%)
                                            0.9819 -0.1586 -0.1038  0.0000
    18. (1.99333) LP ( 2) F   8           s(  0.00%)p 1.00(100.00%)
                                            0.0000  0.0000  0.0000  1.0000
    19. (1.98444) LP*( 3) F   8           s(  0.38%)p99.99( 99.62%)
                                            0.0620  0.7863 -0.6148  0.0000
    20. (0.06086) BD ( 1) C   1 - F   2  
                ( 59.56%)   0.7717* C   1 s( 22.25%)p 3.49( 77.75%)
                                            0.4717 -0.5231  0.0626  0.7071
                ( 40.44%)   0.6359* F   2 s(  3.32%)p29.08( 96.68%)
                                           -0.1823 -0.5560  0.0012  0.8109
    21. (0.06125) BD ( 1) C   1 - F   3  
                ( 59.97%)   0.7744* C   1 s( 22.53%)p 3.44( 77.47%)
                                            0.4746  0.5135  0.7149  0.0000
                ( 40.03%)   0.6327* F   3 s(  3.38%)p28.59( 96.62%)
                                           -0.1838  0.6223  0.7609 -0.0000
    22. (0.05401) BD ( 1) C   1 - C   4  
                ( 48.98%)   0.6999* C   1 s( 32.98%)p 2.03( 67.02%)
                                           -0.5743 -0.4349  0.6936 -0.0000
                ( 51.02%)   0.7143* C   4 s( 22.69%)p 3.41( 77.31%)
                                            0.4763 -0.5181  0.7104  0.0000
    23. (0.06086) BD ( 1) C   1 - F   7  
                ( 59.56%)   0.7717* C   1 s( 22.25%)p 3.49( 77.75%)
                                            0.4717 -0.5231  0.0626 -0.7071
                ( 40.44%)   0.6359* F   7 s(  3.32%)p29.08( 96.68%)
                                           -0.1823 -0.5560  0.0012 -0.8109
    24. (0.00623) BD ( 1) C   4 - H   5  
                ( 41.57%)   0.6447* C   4 s( 29.83%)p 2.35( 70.17%)
                                           -0.5462 -0.4473  0.0400  0.7071
                ( 58.43%)   0.7644* H   5 s(100.00%)
                                            1.0000
    25. (0.00623) BD ( 1) C   4 - H   6  
                ( 41.57%)   0.6447* C   4 s( 29.83%)p 2.35( 70.17%)
                                           -0.5462 -0.4473  0.0400 -0.7071
                ( 58.43%)   0.7644* H   6 s(100.00%)
                                            1.0000
    26. (0.00504) BD ( 1) C   4 - F   8  
                ( 56.76%)   0.7534* C   4 s( 17.65%)p 4.67( 82.35%)
                                            0.4201 -0.5757 -0.7015  0.0000
                ( 43.24%)   0.6576* F   8 s(  3.21%)p30.18( 96.79%)
                                           -0.1791 -0.5972 -0.7818 -0.0000


 NHO Directionality and "Bond Bending" (deviations from line of nuclear centers)

         [Thresholds for printing:  angular deviation  >  1.0 degree]
                                    hybrid p-character > 25.0%
                                    orbital occupancy  >  0.10e

                                Line of Centers        Hybrid 1              Hybrid 2
                                ---------------  -------------------   ------------------
                NBO               Theta   Phi    Theta   Phi    Dev    Theta   Phi    Dev
 ========================================================================================
     1. BD (   1) C   1 - F   2    35.3  177.3    36.7  173.2   2.8    145.6  359.9   1.7
     2. BD (   1) C   1 - F   3    90.0   52.1    90.0   54.3   2.2     90.0  230.7   1.4
     3. BD (   1) C   1 - C   4    90.0  302.6     --     --    --      90.0  126.1   3.5
     4. BD (   1) C   1 - F   7   144.7  177.3   143.3  173.2   2.8     34.4  359.9   1.7
     5. BD (   1) C   4 - H   5   144.7  357.3   147.6  354.9   3.2      --     --    --
     6. BD (   1) C   4 - H   6    35.3  357.3    32.4  354.9   3.2      --     --    --
     7. BD (   1) C   4 - F   8    90.0  232.1    90.0  230.6   1.4      --     --    --
     9. LP*(   2) F   2             --     --     72.3  296.2   --       --     --    --
    10. LP*(   3) F   2             --     --    118.8  216.3   --       --     --    --
    12. LP*(   2) F   3             --     --     90.0  321.2   --       --     --    --
    13. LP*(   3) F   3             --     --      0.0    0.0   --       --     --    --
    15. LP*(   2) F   7             --     --    107.7  296.2   --       --     --    --
    16. LP*(   3) F   7             --     --     61.2  216.3   --       --     --    --
    18. LP (   2) F   8             --     --      0.0    0.0   --       --     --    --
    19. LP*(   3) F   8             --     --     90.0  322.0   --       --     --    --


 Second Order Perturbation Theory Analysis of Fock Matrix in NBO Basis

     Threshold for printing:   0.50 kcal/mol
                                                                              E(2)  E(j)-E(i) F(i,j)
         Donor NBO (i)                     Acceptor NBO (j)                 kcal/mol   a.u.    a.u. 
 ===================================================================================================

 within unit  1
   1. BD (   1) C   1 - F   2        / 20. BD (   1) C   1 - F   2            0.55    0.83    0.019
   1. BD (   1) C   1 - F   2        / 21. BD (   1) C   1 - F   3            2.24    0.82    0.039
   1. BD (   1) C   1 - F   2        / 22. BD (   1) C   1 - C   4            1.85    0.82    0.035
   1. BD (   1) C   1 - F   2        / 23. BD (   1) C   1 - F   7            2.13    0.83    0.038
   1. BD (   1) C   1 - F   2        / 24. BD (   1) C   4 - H   5            0.50    0.94    0.019
   2. BD (   1) C   1 - F   3        / 20. BD (   1) C   1 - F   2            2.22    0.83    0.039
   2. BD (   1) C   1 - F   3        / 21. BD (   1) C   1 - F   3            0.53    0.83    0.019
   2. BD (   1) C   1 - F   3        / 22. BD (   1) C   1 - C   4            1.99    0.83    0.037
   2. BD (   1) C   1 - F   3        / 23. BD (   1) C   1 - F   7            2.22    0.83    0.039
   2. BD (   1) C   1 - F   3        / 26. BD (   1) C   4 - F   8            1.15    0.87    0.028
   3. BD (   1) C   1 - C   4        /  9. LP*(   2) F   2                    0.63    0.12    0.053
   3. BD (   1) C   1 - C   4        / 12. LP*(   2) F   3                    0.63    0.11    0.052
   3. BD (   1) C   1 - C   4        / 15. LP*(   2) F   7                    0.63    0.12    0.053
   3. BD (   1) C   1 - C   4        / 19. LP*(   3) F   8                    0.52    0.12    0.053
   3. BD (   1) C   1 - C   4        / 20. BD (   1) C   1 - F   2            2.87    0.79    0.043
   3. BD (   1) C   1 - C   4        / 21. BD (   1) C   1 - F   3            3.31    0.79    0.046
   3. BD (   1) C   1 - C   4        / 23. BD (   1) C   1 - F   7            2.87    0.79    0.043
   3. BD (   1) C   1 - C   4        / 26. BD (   1) C   4 - F   8            0.52    0.83    0.019
   4. BD (   1) C   1 - F   7        / 20. BD (   1) C   1 - F   2            2.13    0.83    0.038
   4. BD (   1) C   1 - F   7        / 21. BD (   1) C   1 - F   3            2.24    0.82    0.039
   4. BD (   1) C   1 - F   7        / 22. BD (   1) C   1 - C   4            1.85    0.82    0.035
   4. BD (   1) C   1 - F   7        / 23. BD (   1) C   1 - F   7            0.55    0.83    0.019
   4. BD (   1) C   1 - F   7        / 25. BD (   1) C   4 - H   6            0.50    0.94    0.019
   5. BD (   1) C   4 - H   5        / 20. BD (   1) C   1 - F   2            2.18    0.75    0.036
   6. BD (   1) C   4 - H   6        / 23. BD (   1) C   1 - F   7            2.18    0.75    0.036
   7. BD (   1) C   4 - F   8        / 21. BD (   1) C   1 - F   3            1.63    0.79    0.032
   9. LP*(   2) F   2                / 21. BD (   1) C   1 - F   3            2.01    0.67    0.033
   9. LP*(   2) F   2                / 22. BD (   1) C   1 - C   4            3.73    0.67    0.045
   9. LP*(   2) F   2                / 23. BD (   1) C   1 - F   7            2.94    0.68    0.040
  10. LP*(   3) F   2                / 21. BD (   1) C   1 - F   3            6.61    0.67    0.060
  10. LP*(   3) F   2                / 23. BD (   1) C   1 - F   7            5.45    0.67    0.054
  12. LP*(   2) F   3                / 20. BD (   1) C   1 - F   2            2.42    0.68    0.037
  12. LP*(   2) F   3                / 22. BD (   1) C   1 - C   4            3.78    0.68    0.046
  12. LP*(   2) F   3                / 23. BD (   1) C   1 - F   7            2.42    0.68    0.037
  13. LP*(   3) F   3                / 20. BD (   1) C   1 - F   2            5.82    0.68    0.057
  13. LP*(   3) F   3                / 23. BD (   1) C   1 - F   7            5.82    0.68    0.057
  15. LP*(   2) F   7                / 20. BD (   1) C   1 - F   2            2.94    0.68    0.040
  15. LP*(   2) F   7                / 21. BD (   1) C   1 - F   3            2.01    0.67    0.033
  15. LP*(   2) F   7                / 22. BD (   1) C   1 - C   4            3.73    0.67    0.045
  16. LP*(   3) F   7                / 20. BD (   1) C   1 - F   2            5.45    0.67    0.054
  16. LP*(   3) F   7                / 21. BD (   1) C   1 - F   3            6.61    0.67    0.060
  18. LP (   2) F   8                / 24. BD (   1) C   4 - H   5            1.66    0.78    0.032
  18. LP (   2) F   8                / 25. BD (   1) C   4 - H   6            1.66    0.78    0.032
  19. LP*(   3) F   8                / 22. BD (   1) C   1 - C   4            5.34    0.66    0.054


 Natural Bond Orbitals (Summary):

                                                            Principal Delocalizations
           NBO                        Occupancy    Energy   (geminal,vicinal,remote)
 ====================================================================================
 Molecular unit  1  (C2H2F4)
     1. BD (   1) C   1 - F   2          1.98669    -0.77609  13(v),16(v),15(v),12(v),9(g)
                                                    21(g),23(g),22(g),20(g)
     2. BD (   1) C   1 - F   3          1.98530    -0.78205  10(v),16(v),9(v),15(v),20(g)
                                                    23(g),22(g),12(g),26(v)
                                                    21(g)
     3. BD (   1) C   1 - C   4          1.97965    -0.74278  12(v),9(v),15(v),19(v),21(g)
                                                    20(g),23(g),26(g)
     4. BD (   1) C   1 - F   7          1.98669    -0.77609  13(v),10(v),9(v),12(v),15(g)
                                                    21(g),20(g),22(g),23(g)
     5. BD (   1) C   4 - H   5          1.99157    -0.69661  19(v),20(v),15(r),12(r),9(r)
     6. BD (   1) C   4 - H   6          1.99157    -0.69661  19(v),23(v),9(r),12(r),15(r)
     7. BD (   1) C   4 - F   8          1.99427    -0.74478  19(g),21(v)
     8. LP (   1) F   2                  1.99872    -1.48502  9(g)
     9. LP*(   2) F   2                  1.97910    -0.62772  15(r),13(r),22(v),23(v)
                                                    21(v),16(r)
    10. LP*(   3) F   2                  1.97256    -0.62197  16(r),21(v),23(v),15(r)
                                                    13(r)
    11. LP (   1) F   3                  1.99869    -1.49092  12(g)
    12. LP*(   2) F   3                  1.97920    -0.63315  22(v),20(v),23(v)
    13. LP*(   3) F   3                  1.97401    -0.62883  20(v),23(v),9(r),15(r),10(r)
                                                    16(r)
    14. LP (   1) F   7                  1.99872    -1.48502  15(g)
    15. LP*(   2) F   7                  1.97910    -0.62772  9(r),13(r),22(v),20(v),21(v)
                                                    10(r)
    16. LP*(   3) F   7                  1.97256    -0.62197  10(r),21(v),20(v),9(r),13(r)
    17. LP (   1) F   8                  1.99934    -1.48205  19(g)
    18. LP (   2) F   8                  1.99333    -0.61765  24(v),25(v)
    19. LP*(   3) F   8                  1.98444    -0.61870  22(v)
    20. BD (   1) C   1 - F   2          0.06086     0.04919   
    21. BD (   1) C   1 - F   3          0.06125     0.04462   
    22. BD (   1) C   1 - C   4          0.05401     0.04384   
    23. BD (   1) C   1 - F   7          0.06086     0.04919   
    24. BD (   1) C   4 - H   5          0.00623     0.16362   
    25. BD (   1) C   4 - H   6          0.00623     0.16362   
    26. BD (   1) C   4 - F   8          0.00504     0.08355   
       -------------------------------
              Total Lewis   36.15902  ( 72.3180%)
        Valence non-Lewis   13.84098  ( 27.6820%)
        Rydberg non-Lewis    0.00000  (  0.0000%)
       -------------------------------
            Total unit  1   50.00000  (100.0000%)
           Charge unit  1    0.00000
 Leave Link  607 at Fri Sep  6 11:33:49 2024, MaxMem=  1610612736 cpu:              28.1 elap:               2.4
[...]
     16  0.135019D+00
     17  0.299178D-02  0.428109D-01
     18 -0.559853D-01  0.133835D-01  0.598421D-01
     19 -0.559853D-01  0.133835D-01  0.173918D-01  0.598421D-01
     20  0.788128D-02 -0.292921D-02  0.701695D-02 -0.181205D-02  0.209040D-01
     21 -0.903910D-02  0.247004D-02  0.206383D-02 -0.676518D-02  0.102015D-01
     22 -0.578908D-03 -0.229589D-03 -0.831573D-02  0.856750D-02  0.866560D-02
     23  0.846019D-02 -0.269962D-02  0.639611D-02 -0.144298D-02  0.937847D-03
     24 -0.846019D-02  0.269962D-02  0.144298D-02 -0.639611D-02 -0.976469D-02
     25  0.000000D+00  0.000000D+00 -0.893657D-02  0.893657D-02 -0.113006D-01
     26  0.903910D-02 -0.247004D-02  0.676518D-02 -0.206383D-02  0.116926D-02
     27 -0.788128D-02  0.292921D-02  0.181205D-02 -0.701695D-02 -0.953328D-02
     28  0.578908D-03  0.229589D-03 -0.856750D-02  0.831573D-02 -0.110692D-01
               21            22            23            24            25 
     21  0.210978D-01
     22  0.876250D-02  0.225897D-01
     23 -0.986159D-02 -0.113457D-01  0.216976D-01
     24  0.103475D-02 -0.112488D-01  0.108982D-01  0.216976D-01
     25 -0.113006D-01  0.257842D-02  0.941407D-02  0.941407D-02  0.232931D-01
     26 -0.972708D-02 -0.111661D-01  0.103475D-02 -0.986159D-02 -0.113006D-01
     27  0.116926D-02 -0.110692D-01 -0.976469D-02  0.937847D-03 -0.113006D-01
     28 -0.111661D-01  0.275805D-02 -0.112488D-01 -0.113457D-01  0.257842D-02
               26            27            28 
     26  0.210978D-01
     27  0.102015D-01  0.209040D-01
     28  0.876250D-02  0.866560D-02  0.225897D-01
 Leave Link  716 at Fri Sep  6 11:34:00 2024, MaxMem=  1610612736 cpu:               0.2 elap:               0.0
 (Enter /Users/asuyarger/Applications/G16/g16/l103.exe)

 GradGradGradGradGradGradGradGradGradGradGradGradGradGradGradGradGradGrad
 Berny optimization.
 Red2BG is reusing G-inverse.
 Internal  Forces:  Max     0.000001652 RMS     0.000000702
 Search for a local minimum.
 Step number   1 out of a maximum of    2
 All quantities printed in internal units (Hartrees-Bohrs-Radians)
 Second derivative matrix not updated -- analytic derivatives used.
 ITU=  0
     Eigenvalues ---    0.00081   0.03977   0.05976   0.06856   0.07292
     Eigenvalues ---    0.11408   0.13072   0.16531   0.18280   0.18926
     Eigenvalues ---    0.19835   0.25008   0.26678   0.37973   0.45193
     Eigenvalues ---    0.45696   0.48832   0.66870
 Angle between quadratic step and forces=  34.71 degrees.
 Linear search not attempted -- first point.
 Iteration  1 RMS(Cart)=  0.00000454 RMS(Int)=  0.00000000
 Iteration  2 RMS(Cart)=  0.00000000 RMS(Int)=  0.00000000
 ITry= 1 IFail=0 DXMaxC= 1.34D-05 DCOld= 1.00D+10 DXMaxT= 3.00D-01 DXLimC= 3.00D+00 Rises=F
 ClnCor:  largest displacement from symmetrization is 5.34D-09 for atom     7.
 Variable       Old X    -DE/DX   Delta X   Delta X   Delta X     New X
                                 (Linear)    (Quad)   (Total)
    R1        2.53285  -0.00000   0.00000   0.00000   0.00000   2.53285
    R2        2.54125   0.00000   0.00000   0.00000   0.00000   2.54125
    R3        2.89837  -0.00000   0.00000  -0.00000  -0.00000   2.89837
    R4        2.53285  -0.00000   0.00000   0.00000   0.00000   2.53285
    R5        2.10179   0.00000   0.00000   0.00001   0.00001   2.10180
    R6        2.10179   0.00000   0.00000   0.00001   0.00001   2.10180
    R7        2.58134  -0.00000   0.00000  -0.00000  -0.00000   2.58133
    A1        1.81557  -0.00000   0.00000  -0.00000  -0.00000   1.81557
    A2        2.01179  -0.00000   0.00000  -0.00000  -0.00000   2.01179
    A3        1.82164   0.00000   0.00000   0.00000   0.00000   1.82164
    A4        1.96514   0.00000   0.00000   0.00001   0.00001   1.96515
    A5        1.81557  -0.00000   0.00000  -0.00000  -0.00000   1.81557
    A6        2.01179  -0.00000   0.00000  -0.00000  -0.00000   2.01179
    A7        1.94767  -0.00000   0.00000  -0.00000  -0.00000   1.94767
    A8        1.94767  -0.00000   0.00000  -0.00000  -0.00000   1.94767
    A9        1.90459  -0.00000   0.00000  -0.00000  -0.00000   1.90459
   A10        1.90806   0.00000   0.00000  -0.00000  -0.00000   1.90806
   A11        1.87655   0.00000   0.00000   0.00001   0.00001   1.87656
   A12        1.87655   0.00000   0.00000   0.00001   0.00001   1.87656
    D1        3.13386  -0.00000   0.00000   0.00000   0.00000   3.13386
    D2       -1.00881  -0.00000   0.00000  -0.00000  -0.00000  -1.00881
    D3        1.06253  -0.00000   0.00000  -0.00000  -0.00000   1.06252
    D4       -1.07026   0.00000   0.00000   0.00000   0.00000  -1.07026
    D5        1.07026  -0.00000   0.00000  -0.00000  -0.00000   1.07026
    D6       -3.14159   0.00000   0.00000  -0.00000   0.00000  -3.14159
    D7        1.00881   0.00000   0.00000   0.00000   0.00000   1.00881
    D8       -3.13386   0.00000   0.00000  -0.00000  -0.00000  -3.13386
    D9       -1.06253   0.00000   0.00000   0.00000   0.00000  -1.06252
         Item               Value     Threshold  Converged?
 Maximum Force            0.000002     0.000015     YES
 RMS     Force            0.000001     0.000010     YES
 Maximum Displacement     0.000013     0.000060     YES
 RMS     Displacement     0.000005     0.000040     YES
 Predicted change in Energy=-3.015049D-11
 Optimization completed.
    -- Stationary point found.
                           ----------------------------
                           !   Optimized Parameters   !
                           ! (Angstroms and Degrees)  !
 --------------------------                            --------------------------
 ! Name  Definition              Value          Derivative Info.                !
 --------------------------------------------------------------------------------
 ! R1    R(1,2)                  1.3403         -DE/DX =    0.0                 !
 ! R2    R(1,3)                  1.3448         -DE/DX =    0.0                 !
 ! R3    R(1,4)                  1.5338         -DE/DX =    0.0                 !
 ! R4    R(1,7)                  1.3403         -DE/DX =    0.0                 !
 ! R5    R(4,5)                  1.1122         -DE/DX =    0.0                 !
 ! R6    R(4,6)                  1.1122         -DE/DX =    0.0                 !
 ! R7    R(4,8)                  1.366          -DE/DX =    0.0                 !
 ! A1    A(2,1,3)              104.0244         -DE/DX =    0.0                 !
 ! A2    A(2,1,4)              115.2673         -DE/DX =    0.0                 !
 ! A3    A(2,1,7)              104.3725         -DE/DX =    0.0                 !
 ! A4    A(3,1,4)              112.5942         -DE/DX =    0.0                 !
 ! A5    A(3,1,7)              104.0244         -DE/DX =    0.0                 !
 ! A6    A(4,1,7)              115.2673         -DE/DX =    0.0                 !
 ! A7    A(1,4,5)              111.5934         -DE/DX =    0.0                 !
 ! A8    A(1,4,6)              111.5934         -DE/DX =    0.0                 !
 ! A9    A(1,4,8)              109.1249         -DE/DX =    0.0                 !
 ! A10   A(5,4,6)              109.3238         -DE/DX =    0.0                 !
 ! A11   A(5,4,8)              107.5186         -DE/DX =    0.0                 !
 ! A12   A(6,4,8)              107.5186         -DE/DX =    0.0                 !
 ! D1    D(2,1,4,5)            179.5568         -DE/DX =    0.0                 !
 ! D2    D(2,1,4,6)            -57.8004         -DE/DX =    0.0                 !
 ! D3    D(2,1,4,8)             60.8782         -DE/DX =    0.0                 !
 ! D4    D(3,1,4,5)            -61.3214         -DE/DX =    0.0                 !
 ! D5    D(3,1,4,6)             61.3214         -DE/DX =    0.0                 !
 ! D6    D(3,1,4,8)           -180.0            -DE/DX =    0.0                 !
 ! D7    D(7,1,4,5)             57.8004         -DE/DX =    0.0                 !
 ! D8    D(7,1,4,6)           -179.5568         -DE/DX =    0.0                 !
 ! D9    D(7,1,4,8)            -60.8782         -DE/DX =    0.0                 !
 --------------------------------------------------------------------------------
 GradGradGradGradGradGradGradGradGradGradGradGradGradGradGradGradGradGrad

 Leave Link  103 at Fri Sep  6 11:34:00 2024, MaxMem=  1610612736 cpu:               0.1 elap:               0.0
 (Enter /Users/asuyarger/Applications/G16/g16/l9999.exe)

 ----------------------------------------------------------------------

 Electric dipole moment (input orientation):
 (Debye = 10**-18 statcoulomb cm , SI units = C m)
                  (au)            (Debye)         (10**-30 SI)
   Tot        0.905580D+00      0.230176D+01      0.767783D+01
   x         -0.235903D+00     -0.599605D+00     -0.200007D+01
   y          0.437125D+00      0.111106D+01      0.370610D+01
   z         -0.757197D+00     -0.192460D+01     -0.641979D+01

 Dipole polarizability, Alpha (input orientation).
 (esu units = cm**3 , SI units = C**2 m**2 J**-1)
 Alpha(0;0):
               (au)            (10**-24 esu)      (10**-40 SI)
   iso        0.227738D+02      0.337474D+01      0.375490D+01
   aniso      0.691550D+01      0.102477D+01      0.114021D+01
   xx         0.273376D+02      0.405101D+01      0.450736D+01
   yx         0.262131D+00      0.388437D-01      0.432195D-01
   yy         0.205997D+02      0.305257D+01      0.339644D+01
   zx        -0.453139D+00     -0.671483D-01     -0.747125D-01
   zy         0.186569D+00      0.276467D-01      0.307611D-01
   zz         0.203842D+02      0.302063D+01      0.336090D+01

 First dipole hyperpolarizability, Beta (input orientation).
 ||, _|_  parallel and perpendicular components, (z) with respect to z axis,
 vector components x,y,z.  Values do not include the 1/n! factor of 1/2.
 (esu units = statvolt**-1 cm**4 , SI units = C**3 m**3 J**-2)
 Beta(0;0,0):
               (au)            (10**-30 esu)      (10**-50 SI)
   || (z)    -0.403565D+01     -0.348648D-01     -0.129397D-01
   _|_(z)    -0.134522D+01     -0.116216D-01     -0.431325D-02
   x         -0.519876D+02     -0.449132D+00     -0.166691D+00
   y          0.116451D+02      0.100605D+00      0.373385D-01
   z         -0.201782D+02     -0.174324D+00     -0.646987D-01
   ||         0.113938D+02      0.984337D-01      0.365327D-01
   xxx       -0.212358D+00     -0.183461D-02     -0.680897D-03
   xxy       -0.286263D+00     -0.247309D-02     -0.917862D-03
   yxy       -0.878309D+01     -0.758791D-01     -0.281618D-01
   yyy        0.143248D+02      0.123755D+00      0.459306D-01
   xxz        0.498293D+00      0.430486D-02      0.159771D-02
   yxz       -0.387209D+00     -0.334518D-02     -0.124153D-02
   yyz       -0.180696D+01     -0.156107D-01     -0.579375D-02
   zxz       -0.833374D+01     -0.719970D-01     -0.267210D-01
   zyz       -0.101569D+02     -0.877474D-01     -0.325666D-01
   zzz       -0.541741D+01     -0.468022D-01     -0.173702D-01

 ----------------------------------------------------------------------

 Dipole orientation:
     6         -1.53671065         -1.21102321          1.22115606
     9         -1.35083533         -3.23029130         -0.29652296
     9         -4.02447272         -1.03394016          1.70862653
     6          0.06541711         -1.32506534          3.63377244
     1         -0.16398694          0.41014739          4.79736484
     1         -0.40745928         -3.01028857          4.79736484
     9         -1.06668891          0.76155703         -0.29652296
     9          2.55790634         -1.50248488          2.98621465

 Electric dipole moment (dipole orientation):
 (Debye = 10**-18 statcoulomb cm , SI units = C m)
                  (au)            (Debye)         (10**-30 SI)
   Tot        0.905580D+00      0.230176D+01      0.767783D+01
   x          0.000000D+00      0.000000D+00      0.000000D+00
   y          0.000000D+00      0.000000D+00      0.000000D+00
   z          0.905580D+00      0.230176D+01      0.767783D+01

 Dipole polarizability, Alpha (dipole orientation).
 (esu units = cm**3 , SI units = C**2 m**2 J**-1)
 Alpha(0;0):
               (au)            (10**-24 esu)      (10**-40 SI)
   iso        0.227738D+02      0.337474D+01      0.375490D+01
   aniso      0.691550D+01      0.102477D+01      0.114021D+01
   xx         0.270894D+02      0.401424D+01      0.446644D+01
   yx        -0.454282D+00     -0.673176D-01     -0.749009D-01
   yy         0.207398D+02      0.307332D+01      0.341952D+01
   zx        -0.132012D+01     -0.195621D+00     -0.217658D+00
   zy         0.939680D-01      0.139246D-01      0.154932D-01
   zz         0.204923D+02      0.303665D+01      0.337873D+01

 First dipole hyperpolarizability, Beta (dipole orientation).
 ||, _|_  parallel and perpendicular components, (z) with respect to z axis,
 vector components x,y,z.  Values do not include the 1/n! factor of 1/2.
 (esu units = statvolt**-1 cm**4 , SI units = C**3 m**3 J**-2)
 Beta(0;0,0):
               (au)            (10**-30 esu)      (10**-50 SI)
   || (z)     0.720715D+01      0.622642D-01      0.231087D-01
   _|_(z)     0.240238D+01      0.207547D-01      0.770291D-02
   x         -0.440123D+02     -0.380232D+00     -0.141119D+00
   y          0.313287D+01      0.270656D-01      0.100451D-01
   z          0.360358D+02      0.311321D+00      0.115544D+00
   ||         0.113938D+02      0.984337D-01      0.365327D-01
   xxx       -0.235296D+01     -0.203277D-01     -0.754444D-02
   xxy       -0.575858D+00     -0.497496D-02     -0.184641D-02
   yxy       -0.515402D+01     -0.445267D-01     -0.165257D-01
   yyy        0.111022D+01      0.959141D-02      0.355976D-02
   xxz       -0.441053D+01     -0.381035D-01     -0.141417D-01
   yxz        0.139388D+01      0.120420D-01      0.446927D-02
   yyz        0.150722D+02      0.130212D+00      0.483269D-01
   zxz       -0.716380D+01     -0.618896D-01     -0.229697D-01
   zyz        0.509931D+00      0.440541D-02      0.163502D-02
   zzz        0.135025D+01      0.116651D-01      0.432939D-02

 ----------------------------------------------------------------------
 1\1\GINC-JEFFSMACSTUDIO\Freq\RPM6\ZDO\C2H2F4\ROOT\06-Sep-2024\0\\#P Ge
 om=AllCheck Guess=TCheck SCRF=Check GenChk RPM6/ZDO Freq\\R134a PM6 Op
 t Freq - Full - NBO\\0,1\C,-0.9075885843,0.8157610006,-0.0191511598\F,
 -0.5304738515,1.3677847509,1.1425429558\F,-2.249017193,0.7683062161,0.
 0628634224\C,-0.4195589653,1.5427767079,-1.2783831212\H,-0.7597519825,
 1.0299706804,-2.2048468052\H,-0.7598765218,2.6014794267,-1.2975868254\
 F,-0.5303285068,-0.466257645,0.0837176258\F,0.9463589515,1.5496664472,
 -1.2901296716\\Version=EM64M-G16RevA.03\State=1-A'\HF=-0.340865\RMSD=5
 .922e-10\RMSF=1.053e-06\ZeroPoint=0.0421825\Thermal=0.0479352\Dipole=-
 0.2359028,0.4371247,-0.7571972\DipoleDeriv=1.2784351,-0.0492999,0.0853
 797,-0.0299803,1.3057368,0.1422652,0.0519152,0.1422625,1.1414587,-0.31
 3896,-0.0493658,-0.0326471,-0.0631242,-0.3699313,-0.0624124,-0.1095052
 ,-0.1536636,-0.5123427,-0.6150018,0.0314311,-0.0544877,-0.0335733,-0.2
 977381,0.0118649,0.0581095,0.0118739,-0.3114449,0.051887,0.1205154,-0.
 208677,0.0637486,-0.4063462,-0.1348659,-0.1103484,-0.1348581,-0.250632
 7,0.1040763,0.0098769,0.0827339,0.0110477,0.1737899,0.0811435,0.056182
 3,0.0410156,0.2429032,0.1040883,-0.0766086,0.032817,-0.0541977,0.27850
 58,-0.0194577,0.0185214,0.0206669,0.1381752,-0.3139191,0.0529842,0.026
 4303,0.1264295,-0.5702815,-0.0379543,-0.000098,0.0532888,-0.3119694,-0
 .2956627,-0.039534,0.0684522,-0.0203517,-0.1137334,0.0194151,0.0352256
 ,0.0194125,-0.1361435\Polar=27.3376036,0.2621306,20.5997331,-0.4531389
 ,0.1865693,20.3841942\HyperPolar=-0.2123581,-0.2862628,-8.783094,14.32
 48415,0.4982929,-0.3872085,-1.8069562,-8.3337372,-10.156869,-5.4174121
 \PG=CS [SG(C2F2),X(H2F2)]\NImag=0\\0.55111151,-0.00039454,0.56400088,0
 .00068190,-0.00349658,0.56803897,-0.05718200,-0.03528213,-0.07962557,0
 .10230622,-0.03391668,-0.08421084,-0.11719998,0.05942466,0.14709287,-0
 .07274830,-0.10894868,-0.29873818,0.11815755,0.17051972,0.37629261,-0.
 35707349,-0.02086963,0.03610496,-0.05780548,-0.02409632,-0.04446530,0.
 50324392,-0.01631241,-0.03574952,0.00287916,-0.02392795,-0.00182512,-0
 .01289289,0.00519323,0.05991446,0.02821117,0.00287854,-0.03906821,-0.0
 4445981,-0.01296104,-0.01616254,-0.00893480,0.00266641,0.05683356,-0.0
 6042387,-0.01699734,0.02944179,0.00634110,0.00085059,-0.00572134,-0.02
 740319,-0.01313092,0.02274006,0.53569364,-0.01500326,-0.08763899,0.048
 61053,0.00085278,0.00702988,-0.00572103,-0.00807059,0.00323284,0.00535
 174,-0.00093803,0.41354299,0.02598775,0.04861026,-0.14377068,0.0024142
 8,0.00387763,-0.04125652,0.01397483,0.00535105,-0.00294375,0.00164192,
 -0.00439475,0.41861848,0.00679246,0.00255466,0.00345470,-0.00044217,-0
 .00048513,0.00163627,-0.00112332,-0.00020349,0.00083961,-0.04706569,-0
 .02019307,-0.03583503,0.06911663,0.00159539,0.00830215,0.00918032,-0.0
 0045820,-0.00068094,0.00292945,-0.00046418,-0.00044456,0.00023802,-0.0
 2249450,-0.07365634,-0.07099735,0.03236631,0.08027899,0.00022562,-0.00
 196884,-0.03634920,0.00043874,0.00065771,-0.00273565,0.00071057,0.0001
 3438,-0.00094184,-0.04255897,-0.06635979,-0.15339159,0.05341670,0.0781
 8653,0.19561810,0.00679320,-0.00426762,-0.00048581,-0.00015382,0.00008
 181,-0.00009563,-0.00112329,-0.00062543,0.00059600,-0.04707615,0.04114
 805,-0.00043300,0.00489958,-0.00317055,-0.00025649,0.06913166,-0.00099
 079,-0.02206227,0.01556355,0.00020264,-0.00028574,-0.00027476,-0.00038
 332,-0.00065635,0.00025665,0.04812148,-0.19292454,0.00251685,0.0018104
 8,-0.01551593,-0.00762745,-0.06246236,0.23447894,-0.00127108,0.0267123
 9,-0.00598553,-0.00014282,0.00015513,-0.00171191,0.00075723,0.00036029
 ,-0.00073006,-0.00180165,-0.00212134,-0.03411293,0.00261995,-0.0176877
 8,-0.00089832,-0.00131546,-0.01086388,0.04140312,-0.05720068,0.0866301
 5,-0.00926778,0.00686026,-0.00158158,0.00197298,-0.05781729,0.05046320
 ,-0.00151449,0.00634107,-0.00251461,0.00046760,-0.00015380,0.00002244,
 -0.00024692,-0.00044214,-0.00015085,0.00061601,0.10233657,0.07999107,-
 0.34300824,0.04050070,-0.00090579,-0.06749092,-0.04544964,0.05055215,-
 0.02376127,-0.00021639,0.00453260,-0.02998090,0.01565006,0.00004203,-0
 .00140711,0.00037271,-0.00117460,-0.00066867,0.00292227,-0.13208175,0.
 46663433,-0.00701036,0.03225012,-0.03992209,0.00236312,-0.04533633,-0.
 01506932,-0.00137142,-0.00028453,0.00578543,-0.00359980,0.02524775,-0.
 00424571,-0.00011874,0.00080261,-0.00059056,0.00123841,0.00065067,-0.0
 0274795,0.00762673,-0.01401466,0.05672080,-0.03281619,-0.01137388,0.01
 969638,0.00007583,-0.00027708,0.00126378,-0.00089813,-0.00145602,0.002
 52187,-0.36640720,0.00471897,-0.00821877,-0.03202377,-0.00739667,-0.01
 172926,-0.03202912,0.01385269,0.00053781,0.00007595,-0.00095586,0.0008
 7182,0.46402253,-0.01496899,0.00036736,0.00396265,0.00009432,0.0003707
 8,-0.00016210,-0.00186137,-0.00071075,0.00178584,0.00005611,-0.0396059
 6,-0.00061354,-0.01589174,0.00312392,-0.00339522,0.03047055,-0.0023654
 3,0.00052298,-0.00078691,-0.00031755,0.00068377,0.00288777,0.03913851,
 0.02592363,0.00396314,-0.00420494,0.00085421,0.00028639,-0.00061853,0.
 00322400,0.00178590,-0.00277260,-0.00014200,-0.00061290,-0.03889855,-0
 .02601333,-0.00265185,-0.00071098,0.00075200,-0.00022151,0.00478373,0.
 00034544,0.00023521,0.00006967,-0.00494351,-0.00278428,0.04235297\\-0.
 00000104,-0.00000066,0.00000114,0.00000016,0.,0.00000023,0.00000071,0.
 00000040,-0.00000070,-0.00000336,0.00000081,-0.00000141,0.00000086,0.0
 0000068,0.00000121,0.00000086,-0.00000138,0.00000002,0.00000016,-0.000
 00020,0.00000012,0.00000164,0.00000035,-0.00000061\\\@


 THERE'S SMALL CHOICE IN A BOWL OF ROTTEN APPLES.
                     SHAKESPEARE
 Job cpu time:       0 days  0 hours  0 minutes  4.3 seconds.
 Elapsed time:       0 days  0 hours  0 minutes  3.3 seconds.
 File lengths (MBytes):  RWF=      6 Int=      0 D2E=      0 Chk=      2 Scr=      1
 Normal termination of Gaussian 16 at Fri Sep  6 11:34:00 2024.
