 Entering Gaussian System, Link 0=g16
 Input=/Users/asuyarger/Downloads/r134a_DFT_B3LPY_6311pp2d3p_Opt_Freq_Full_NBO.gjf
 Output=/Users/asuyarger/Downloads/r134a_DFT_B3LPY_6311pp2d3p_Opt_Freq_Full_NBO.log
 Initial command:
 /Users/asuyarger/Applications/G16/g16/l1.exe "/Users/asuyarger/Applications/G16/scratch/Gau-89740.inp" -scrdir="/Users/asuyarger/Applications/G16/scratch/"
 Entering Link 1 = /Users/asuyarger/Applications/G16/g16/l1.exe PID=     89741.
  
 Copyright (c) 1988,1990,1992,1993,1995,1998,2003,2009,2016,
            Gaussian, Inc.  All Rights Reserved.
  
 This is part of the Gaussian(R) 16 program.  It is based on
 the Gaussian(R) 09 system (copyright 2009, Gaussian, Inc.),
 the Gaussian(R) 03 system (copyright 2003, Gaussian, Inc.),
 the Gaussian(R) 98 system (copyright 1998, Gaussian, Inc.),
 the Gaussian(R) 94 system (copyright 1995, Gaussian, Inc.),
 the Gaussian 92(TM) system (copyright 1992, Gaussian, Inc.),
 the Gaussian 90(TM) system (copyright 1990, Gaussian, Inc.),
 the Gaussian 88(TM) system (copyright 1988, Gaussian, Inc.),
 the Gaussian 86(TM) system (copyright 1986, Carnegie Mellon
 University), and the Gaussian 82(TM) system (copyright 1983,
 Carnegie Mellon University). Gaussian is a federally registered
 trademark of Gaussian, Inc.
  
 This software contains proprietary and confidential information,
 including trade secrets, belonging to Gaussian, Inc.
  
 This software is provided under written license and may be
 used, copied, transmitted, or stored only in accord with that
 written license.
  
 The following legend is applicable only to US Government
 contracts under FAR:
  
                    RESTRICTED RIGHTS LEGEND
  
 Use, reproduction and disclosure by the US Government is
 subject to restrictions as set forth in subparagraphs (a)
 and (c) of the Commercial Computer Software - Restricted
 Rights clause in FAR 52.227-19.
  
 Gaussian, Inc.
 340 Quinnipiac St., Bldg. 40, Wallingford CT 06492
  
  
 ---------------------------------------------------------------
 Warning -- This program may not be used in any manner that
 competes with the business of Gaussian, Inc. or will provide
 assistance to any competitor of Gaussian, Inc.  The licensee
 of this program is prohibited from giving any competitor of
 Gaussian, Inc. access to this program.  By using this program,
 the user acknowledges that Gaussian, Inc. is engaged in the
 business of creating and licensing software in the field of
 computational chemistry and represents and warrants to the
 licensee that it is not a competitor of Gaussian, Inc. and that
 it will not use this program in any manner prohibited above.
 ---------------------------------------------------------------
  

 Cite this work as:
 Gaussian 16, Revision A.03,
 M. J. Frisch, G. W. Trucks, H. B. Schlegel, G. E. Scuseria, 
 M. A. Robb, J. R. Cheeseman, G. Scalmani, V. Barone, 
 G. A. Petersson, H. Nakatsuji, X. Li, M. Caricato, A. V. Marenich, 
 J. Bloino, B. G. Janesko, R. Gomperts, B. Mennucci, H. P. Hratchian, 
 J. V. Ortiz, A. F. Izmaylov, J. L. Sonnenberg, D. Williams-Young, 
 F. Ding, F. Lipparini, F. Egidi, J. Goings, B. Peng, A. Petrone, 
 T. Henderson, D. Ranasinghe, V. G. Zakrzewski, J. Gao, N. Rega, 
 G. Zheng, W. Liang, M. Hada, M. Ehara, K. Toyota, R. Fukuda, 
 J. Hasegawa, M. Ishida, T. Nakajima, Y. Honda, O. Kitao, H. Nakai, 
 T. Vreven, K. Throssell, J. A. Montgomery, Jr., J. E. Peralta, 
 F. Ogliaro, M. J. Bearpark, J. J. Heyd, E. N. Brothers, K. N. Kudin, 
 V. N. Staroverov, T. A. Keith, R. Kobayashi, J. Normand, 
 K. Raghavachari, A. P. Rendell, J. C. Burant, S. S. Iyengar, 
 J. Tomasi, M. Cossi, J. M. Millam, M. Klene, C. Adamo, R. Cammi, 
 J. W. Ochterski, R. L. Martin, K. Morokuma, O. Farkas, 
 J. B. Foresman, and D. J. Fox, Gaussian, Inc., Wallingford CT, 2016.
 
 ******************************************
 Gaussian 16:  EM64M-G16RevA.03 25-Dec-2016
                 6-Sep-2024 
 ******************************************
 %nprocshared=12
 Will use up to   12 processors via shared memory.
 %mem=12GB
 %chk=r134a_DFT_B3LPY_6311pp2d3p_Opt_Freq_Full_NBO.chk
 ----------------------------------------------------------------------
 #p opt=tight freq b3lyp/6-311++g(2d,3p) guess=save pop=(hirshfeld,full
 ,nbo) geom=connectivity polar
 ----------------------------------------------------------------------
 1/7=10,18=20,19=15,26=3,38=1,57=2/1,3;
 2/9=110,12=2,17=6,18=5,40=1/2;
 3/5=4,6=6,7=1512,11=2,25=1,30=1,71=1,74=-5/1,2,3;
 4//1;
 5/5=2,38=5,98=1/2;
 6/7=3,28=1,40=1,79=1/1,7;
 7//1,2,3,16;
 1/7=10,18=20,19=15,26=3/3(2);
 2/9=110/2;
 99//99;
 2/9=110/2;
 3/5=4,6=6,7=1512,11=2,25=1,30=1,71=1,74=-5/1,2,3;
 4/5=5,16=3,69=1/1;
 5/5=2,38=5,98=1/2;
 7//1,2,3,16;
 1/7=10,18=20,19=15,26=3/3(-5);
 2/9=110/2;
 6/7=3,19=2,28=1,40=1,79=1/1,7;
 99/9=1/99;
 Leave Link    1 at Fri Sep  6 11:31:27 2024, MaxMem=  1610612736 cpu:               0.3 elap:               0.0
 (Enter /Users/asuyarger/Applications/G16/g16/l101.exe)
 -----------------------------------------------------
 R134a DFT B3LPY 6-311++g(2d,3p) Opt Freq - Full - NBO
 -----------------------------------------------------
 Symbolic Z-matrix:
 Charge =  0 Multiplicity = 1
 C                    -0.93128   0.8047    0. 
 F                    -0.48136   1.44115   1.10227 
 F                    -2.28128   0.80463  -0.00005 
 C                    -0.41794   1.53066  -1.2574 
 H                    -0.77455   1.02622  -2.13105 
 H                    -0.77467   2.53945  -1.25744 
 F                    -0.48121  -0.46806   0.00005 
 F                     0.93206   1.53074  -1.25735 
 
 ITRead=  0  0  0  0  0  0  0  0
 MicOpt= -1 -1 -1 -1 -1 -1 -1 -1
 NAtoms=      8 NQM=        8 NQMF=       0 NMMI=      0 NMMIF=      0
                NMic=       0 NMicF=      0.
                    Isotopes and Nuclear Properties:
 (Nuclear quadrupole moments (NQMom) in fm**2, nuclear magnetic moments (NMagM)
  in nuclear magnetons)

  Atom         1           2           3           4           5           6           7           8
 IAtWgt=          12          19          19          12           1           1          19          19
 AtmWgt=  12.0000000  18.9984033  18.9984033  12.0000000   1.0078250   1.0078250  18.9984033  18.9984033
 NucSpn=           0           1           1           0           1           1           1           1
 AtZEff=  -0.0000000  -0.0000000  -0.0000000  -0.0000000  -0.0000000  -0.0000000  -0.0000000  -0.0000000
 NQMom=    0.0000000   0.0000000   0.0000000   0.0000000   0.0000000   0.0000000   0.0000000   0.0000000
 NMagM=    0.0000000   2.6288670   2.6288670   0.0000000   2.7928460   2.7928460   2.6288670   2.6288670
 AtZNuc=   6.0000000   9.0000000   9.0000000   6.0000000   1.0000000   1.0000000   9.0000000   9.0000000
 Leave Link  101 at Fri Sep  6 11:31:27 2024, MaxMem=  1610612736 cpu:               2.4 elap:               0.2
 (Enter /Users/asuyarger/Applications/G16/g16/l103.exe)

 GradGradGradGradGradGradGradGradGradGradGradGradGradGradGradGradGradGrad
 Berny optimization.
 Initialization pass.
                           ----------------------------
                           !    Initial Parameters    !
                           ! (Angstroms and Degrees)  !
 --------------------------                            --------------------------
 ! Name  Definition              Value          Derivative Info.                !
 --------------------------------------------------------------------------------
 ! R1    R(1,2)                  1.35           estimate D2E/DX2                !
 ! R2    R(1,3)                  1.35           estimate D2E/DX2                !
 ! R3    R(1,4)                  1.54           estimate D2E/DX2                !
 ! R4    R(1,7)                  1.35           estimate D2E/DX2                !
 ! R5    R(4,5)                  1.07           estimate D2E/DX2                !
 ! R6    R(4,6)                  1.07           estimate D2E/DX2                !
 ! R7    R(4,8)                  1.35           estimate D2E/DX2                !
 ! A1    A(2,1,3)              109.4712         estimate D2E/DX2                !
 ! A2    A(2,1,4)              109.4712         estimate D2E/DX2                !
 ! A3    A(2,1,7)              109.4712         estimate D2E/DX2                !
 ! A4    A(3,1,4)              109.4712         estimate D2E/DX2                !
 ! A5    A(3,1,7)              109.4712         estimate D2E/DX2                !
 ! A6    A(4,1,7)              109.4712         estimate D2E/DX2                !
 ! A7    A(1,4,5)              109.4712         estimate D2E/DX2                !
 ! A8    A(1,4,6)              109.4712         estimate D2E/DX2                !
 ! A9    A(1,4,8)              109.4712         estimate D2E/DX2                !
 ! A10   A(5,4,6)              109.4712         estimate D2E/DX2                !
 ! A11   A(5,4,8)              109.4712         estimate D2E/DX2                !
 ! A12   A(6,4,8)              109.4712         estimate D2E/DX2                !
 ! D1    D(2,1,4,5)            180.0            estimate D2E/DX2                !
 ! D2    D(2,1,4,6)            -60.0            estimate D2E/DX2                !
 ! D3    D(2,1,4,8)             60.0            estimate D2E/DX2                !
 ! D4    D(3,1,4,5)            -60.0            estimate D2E/DX2                !
 ! D5    D(3,1,4,6)             60.0            estimate D2E/DX2                !
 ! D6    D(3,1,4,8)            180.0            estimate D2E/DX2                !
 ! D7    D(7,1,4,5)             60.0            estimate D2E/DX2                !
 ! D8    D(7,1,4,6)            180.0            estimate D2E/DX2                !
 ! D9    D(7,1,4,8)            -60.0            estimate D2E/DX2                !
 --------------------------------------------------------------------------------
 Trust Radius=3.00D-01 FncErr=1.00D-07 GrdErr=1.00D-06 EigMax=2.50D+02 EigMin=1.00D-04
 Number of steps in this run=     38 maximum allowed number of steps=    100.
 GradGradGradGradGradGradGradGradGradGradGradGradGradGradGradGradGradGrad

 Leave Link  103 at Fri Sep  6 11:31:27 2024, MaxMem=  1610612736 cpu:               0.1 elap:               0.0
 (Enter /Users/asuyarger/Applications/G16/g16/l202.exe)
                          Input orientation:                          
 ---------------------------------------------------------------------
 Center     Atomic      Atomic             Coordinates (Angstroms)
 Number     Number       Type             X           Y           Z
 ---------------------------------------------------------------------
      1          6           0       -0.931284    0.804702    0.000001
      2          9           0       -0.481364    1.441151    1.102273
      3          9           0       -2.281284    0.804626   -0.000053
      4          6           0       -0.417942    1.530664   -1.257401
      5          1           0       -0.774545    1.026219   -2.131055
      6          1           0       -0.774665    2.539449   -1.257440
      7          9           0       -0.481212   -0.468064    0.000050
      8          9           0        0.932058    1.530740   -1.257348
 ---------------------------------------------------------------------
                    Distance matrix (angstroms):
                    1          2          3          4          5
     1  C    0.000000
     2  F    1.350000   0.000000
     3  F    1.350000   2.204541   0.000000
     4  C    1.540000   2.362224   2.362224   0.000000
     5  H    2.148263   3.273001   2.619262   1.070000   0.000000
     6  H    2.148263   2.619262   2.619262   1.070000   1.747303
     7  F    1.350000   2.204541   2.204541   2.362224   2.619262
     8  F    2.362224   2.752017   3.526131   1.350000   1.982524
                    6          7          8
     6  H    0.000000
     7  F    3.273001   0.000000
     8  F    1.982524   2.752017   0.000000
 Stoichiometry    C2H2F4
 Framework group  CS[SG(C2F2),X(H2F2)]
 Deg. of freedom    11
 Full point group                 CS      NOp   2
 Largest Abelian subgroup         CS      NOp   2
 Largest concise Abelian subgroup CS      NOp   2
                         Standard orientation:                         
 ---------------------------------------------------------------------
 Center     Atomic      Atomic             Coordinates (Angstroms)
 Number     Number       Type             X           Y           Z
 ---------------------------------------------------------------------
      1          6           0       -0.026516    0.429212    0.000000
      2          9           0       -0.805098    0.465407    1.102270
      3          9           0        0.803253    1.494099    0.000000
      4          6           0        0.803253   -0.868125   -0.000000
      5          1           0        1.420351   -0.896813   -0.873651
      6          1           0        1.420351   -0.896813    0.873651
      7          9           0       -0.805098    0.465407   -1.102270
      8          9           0       -0.026516   -1.933012   -0.000000
 ---------------------------------------------------------------------
 Rotational constants (GHZ):           5.2497613           2.7740143           2.7610136
 Leave Link  202 at Fri Sep  6 11:31:27 2024, MaxMem=  1610612736 cpu:               0.1 elap:               0.0
 (Enter /Users/asuyarger/Applications/G16/g16/l301.exe)
 Standard basis: 6-311++G(2d,3p) (5D, 7F)
 Ernie: Thresh=  0.10000D-02 Tol=  0.10000D-05 Strict=F.
 There are   126 symmetry adapted cartesian basis functions of A'  symmetry.
 There are    74 symmetry adapted cartesian basis functions of A"  symmetry.
 There are   116 symmetry adapted basis functions of A'  symmetry.
 There are    72 symmetry adapted basis functions of A"  symmetry.
   188 basis functions,   282 primitive gaussians,   200 cartesian basis functions
    25 alpha electrons       25 beta electrons
       nuclear repulsion energy       271.2438410240 Hartrees.
 IExCor=  402 DFT=T Ex+Corr=B3LYP ExCW=0 ScaHFX=  0.200000
 ScaDFX=  0.800000  0.720000  1.000000  0.810000 ScalE2=  1.000000  1.000000
 IRadAn=      5 IRanWt=     -1 IRanGd=            0 ICorTp=0 IEmpDi=  4
 NAtoms=    8 NActive=    8 NUniq=    6 SFac= 1.78D+00 NAtFMM=   60 NAOKFM=F Big=F
 Integral buffers will be    131072 words long.
 Raffenetti 2 integral format.
 Two-electron integral symmetry is turned on.
 Leave Link  301 at Fri Sep  6 11:31:27 2024, MaxMem=  1610612736 cpu:               0.2 elap:               0.0
 (Enter /Users/asuyarger/Applications/G16/g16/l302.exe)
 NPDir=0 NMtPBC=     1 NCelOv=     1 NCel=       1 NClECP=     1 NCelD=      1
         NCelK=      1 NCelE2=     1 NClLst=     1 CellRange=     0.0.
 One-electron integrals computed using PRISM.
 One-electron integral symmetry used in STVInt
 NBasis=   188 RedAO= T EigKep=  1.19D-04  NBF=   116    72
 NBsUse=   188 1.00D-06 EigRej= -1.00D+00 NBFU=   116    72
 Precomputing XC quadrature grid using
 IXCGrd= 4 IRadAn=           5 IRanWt=          -1 IRanGd=           0 AccXCQ= 0.00D+00.
 Generated NRdTot=       0 NPtTot=           0 NUsed=           0 NTot=          32
 NSgBfM=   200   200   200   200   200 MxSgAt=     8 MxSgA2=     8.
 Leave Link  302 at Fri Sep  6 11:31:27 2024, MaxMem=  1610612736 cpu:               1.2 elap:               0.1
 (Enter /Users/asuyarger/Applications/G16/g16/l303.exe)
 DipDrv:  MaxL=1.
 Leave Link  303 at Fri Sep  6 11:31:27 2024, MaxMem=  1610612736 cpu:               0.2 elap:               0.0
 (Enter /Users/asuyarger/Applications/G16/g16/l401.exe)
 ExpMin= 3.60D-02 ExpMax= 1.14D+04 ExpMxC= 1.72D+03 IAcc=3 IRadAn=         5 AccDes= 0.00D+00
 Harris functional with IExCor=  402 and IRadAn=       5 diagonalized for initial guess.
 HarFok:  IExCor=  402 AccDes= 0.00D+00 IRadAn=         5 IDoV= 1 UseB2=F ITyADJ=14
 ICtDFT=  3500011 ScaDFX=  1.000000  1.000000  1.000000  1.000000
 FoFCou: FMM=F IPFlag=           0 FMFlag=      100000 FMFlg1=           0
         NFxFlg=           0 DoJE=T BraDBF=F KetDBF=T FulRan=T
         wScrn=  0.000000 ICntrl=       500 IOpCl=  0 I1Cent=   200000004 NGrid=           0
         NMat0=    1 NMatS0=      1 NMatT0=    0 NMatD0=    1 NMtDS0=    0 NMtDT0=    0
 Petite list used in FoFCou.
 Harris En= -476.920247250217    
 JPrj=0 DoOrth=F DoCkMO=F.
 Initial guess orbital symmetries:
       Occupied  (A') (A') (A') (A") (A') (A') (A') (A') (A") (A')
                 (A') (A') (A") (A') (A') (A') (A") (A') (A") (A')
                 (A") (A') (A") (A") (A')
       Virtual   (A') (A') (A") (A') (A") (A') (A') (A') (A") (A')
                 (A') (A") (A') (A") (A') (A') (A') (A") (A') (A')
                 (A') (A") (A') (A") (A') (A') (A") (A") (A') (A')
                 (A") (A') (A") (A') (A') (A") (A') (A") (A') (A')
                 (A') (A") (A') (A") (A') (A") (A') (A") (A') (A')
                 (A') (A') (A") (A") (A') (A') (A') (A') (A") (A')
                 (A") (A') (A") (A") (A') (A') (A") (A') (A') (A")
                 (A') (A") (A') (A") (A') (A") (A') (A') (A") (A")
                 (A') (A") (A') (A") (A') (A") (A') (A') (A") (A')
                 (A") (A') (A') (A') (A") (A') (A') (A") (A') (A")
                 (A') (A') (A") (A') (A') (A") (A') (A") (A') (A")
                 (A') (A") (A') (A') (A") (A') (A') (A") (A') (A')
                 (A") (A") (A") (A') (A') (A") (A') (A') (A') (A')
                 (A") (A") (A') (A") (A') (A') (A") (A") (A') (A")
                 (A") (A') (A") (A') (A") (A') (A") (A') (A') (A')
                 (A") (A') (A") (A') (A') (A') (A") (A') (A') (A')
                 (A") (A') (A')
 The electronic state of the initial guess is 1-A'.
 Leave Link  401 at Fri Sep  6 11:31:28 2024, MaxMem=  1610612736 cpu:               2.2 elap:               0.2
 (Enter /Users/asuyarger/Applications/G16/g16/l502.exe)
 Keep R1 ints in memory in symmetry-blocked form, NReq=237061897.
 FoFCou: FMM=F IPFlag=           0 FMFlag=           0 FMFlg1=           0
         NFxFlg=           0 DoJE=F BraDBF=F KetDBF=F FulRan=T
         wScrn=  0.000000 ICntrl=       600 IOpCl=  0 I1Cent=           0 NGrid=           0
         NMat0=    1 NMatS0=  17766 NMatT0=    0 NMatD0=    1 NMtDS0=    0 NMtDT0=    0
 Petite list used in FoFCou.
 Closed shell SCF:
 Using DIIS extrapolation, IDIIS=  1040.
 NGot=  1610612736 LenX=  1531291995 LenY=  1531251554
 Requested convergence on RMS density matrix=1.00D-08 within 128 cycles.
 Requested convergence on MAX density matrix=1.00D-06.
 Requested convergence on             energy=1.00D-06.
 No special actions if energy rises.

 Cycle   1  Pass 1  IDiag  1:
 E= -476.865579722682    
 DIIS: error= 2.50D-02 at cycle   1 NSaved=   1.
 NSaved= 1 IEnMin= 1 EnMin= -476.865579722682     IErMin= 1 ErrMin= 2.50D-02
 ErrMax= 2.50D-02  0.00D+00 EMaxC= 1.00D-01 BMatC= 1.43D-01 BMatP= 1.43D-01
 IDIUse=3 WtCom= 7.50D-01 WtEn= 2.50D-01
 Coeff-Com:  0.100D+01
 Coeff-En:   0.100D+01
 Coeff:      0.100D+01
 Gap=     0.347 Goal=   None    Shift=    0.000
 GapD=    0.347 DampG=1.000 DampE=0.500 DampFc=0.5000 IDamp=-1.
 Damping current iteration by 5.00D-01
 RMSDP=2.25D-03 MaxDP=1.25D-01              OVMax= 1.16D-01

 Cycle   2  Pass 1  IDiag  1:
 E= -476.893575762816     Delta-E=       -0.027996040135 Rises=F Damp=T
 DIIS: error= 6.25D-03 at cycle   2 NSaved=   2.
 NSaved= 2 IEnMin= 2 EnMin= -476.893575762816     IErMin= 2 ErrMin= 6.25D-03
 ErrMax= 6.25D-03  0.00D+00 EMaxC= 1.00D-01 BMatC= 1.16D-02 BMatP= 1.43D-01
 IDIUse=3 WtCom= 9.37D-01 WtEn= 6.25D-02
 Coeff-Com:  0.159D+00 0.841D+00
 Coeff-En:   0.294D+00 0.706D+00
 Coeff:      0.167D+00 0.833D+00
 Gap=     0.373 Goal=   None    Shift=    0.000
 RMSDP=5.00D-04 MaxDP=2.33D-02 DE=-2.80D-02 OVMax= 8.23D-02

 Cycle   3  Pass 1  IDiag  1:
 E= -476.947705248016     Delta-E=       -0.054129485200 Rises=F Damp=F
 DIIS: error= 3.55D-03 at cycle   3 NSaved=   3.
 NSaved= 3 IEnMin= 3 EnMin= -476.947705248016     IErMin= 3 ErrMin= 3.55D-03
 ErrMax= 3.55D-03  0.00D+00 EMaxC= 1.00D-01 BMatC= 3.03D-03 BMatP= 1.16D-02
 IDIUse=3 WtCom= 9.65D-01 WtEn= 3.55D-02
 Coeff-Com: -0.839D-03 0.316D+00 0.685D+00
 Coeff-En:   0.000D+00 0.000D+00 0.100D+01
 Coeff:     -0.809D-03 0.305D+00 0.696D+00
 Gap=     0.370 Goal=   None    Shift=    0.000
 RMSDP=2.25D-04 MaxDP=1.36D-02 DE=-5.41D-02 OVMax= 1.28D-02

 Cycle   4  Pass 1  IDiag  1:
 E= -476.949367106904     Delta-E=       -0.001661858887 Rises=F Damp=F
 DIIS: error= 1.90D-03 at cycle   4 NSaved=   4.
 NSaved= 4 IEnMin= 4 EnMin= -476.949367106904     IErMin= 4 ErrMin= 1.90D-03
 ErrMax= 1.90D-03  0.00D+00 EMaxC= 1.00D-01 BMatC= 5.51D-04 BMatP= 3.03D-03
 IDIUse=3 WtCom= 9.81D-01 WtEn= 1.90D-02
 Coeff-Com: -0.143D-01 0.865D-01 0.354D+00 0.573D+00
 Coeff-En:   0.000D+00 0.000D+00 0.128D+00 0.872D+00
 Coeff:     -0.140D-01 0.848D-01 0.350D+00 0.579D+00
 Gap=     0.368 Goal=   None    Shift=    0.000
 RMSDP=7.94D-05 MaxDP=5.56D-03 DE=-1.66D-03 OVMax= 4.86D-03

 Cycle   5  Pass 1  IDiag  1:
 E= -476.949804332210     Delta-E=       -0.000437225307 Rises=F Damp=F
 DIIS: error= 4.25D-04 at cycle   5 NSaved=   5.
 NSaved= 5 IEnMin= 5 EnMin= -476.949804332210     IErMin= 5 ErrMin= 4.25D-04
 ErrMax= 4.25D-04  0.00D+00 EMaxC= 1.00D-01 BMatC= 1.96D-05 BMatP= 5.51D-04
 IDIUse=3 WtCom= 9.96D-01 WtEn= 4.25D-03
 Coeff-Com: -0.633D-02 0.161D-01 0.105D+00 0.234D+00 0.651D+00
 Coeff-En:   0.000D+00 0.000D+00 0.000D+00 0.000D+00 0.100D+01
 Coeff:     -0.630D-02 0.160D-01 0.104D+00 0.233D+00 0.653D+00
 Gap=     0.367 Goal=   None    Shift=    0.000
 RMSDP=1.57D-05 MaxDP=5.77D-04 DE=-4.37D-04 OVMax= 8.49D-04

 Cycle   6  Pass 1  IDiag  1:
 E= -476.949813040297     Delta-E=       -0.000008708087 Rises=F Damp=F
 DIIS: error= 1.62D-04 at cycle   6 NSaved=   6.
 NSaved= 6 IEnMin= 6 EnMin= -476.949813040297     IErMin= 6 ErrMin= 1.62D-04
 ErrMax= 1.62D-04  0.00D+00 EMaxC= 1.00D-01 BMatC= 4.01D-06 BMatP= 1.96D-05
 IDIUse=3 WtCom= 9.98D-01 WtEn= 1.62D-03
 Coeff-Com: -0.280D-02 0.342D-02 0.367D-01 0.977D-01 0.383D+00 0.482D+00
 Coeff-En:   0.000D+00 0.000D+00 0.000D+00 0.000D+00 0.112D+00 0.888D+00
 Coeff:     -0.280D-02 0.341D-02 0.366D-01 0.975D-01 0.383D+00 0.482D+00
 Gap=     0.368 Goal=   None    Shift=    0.000
 RMSDP=5.40D-06 MaxDP=2.09D-04 DE=-8.71D-06 OVMax= 3.09D-04

 Cycle   7  Pass 1  IDiag  1:
 E= -476.949815287086     Delta-E=       -0.000002246789 Rises=F Damp=F
 DIIS: error= 1.48D-05 at cycle   7 NSaved=   7.
 NSaved= 7 IEnMin= 7 EnMin= -476.949815287086     IErMin= 7 ErrMin= 1.48D-05
 ErrMax= 1.48D-05  0.00D+00 EMaxC= 1.00D-01 BMatC= 4.18D-08 BMatP= 4.01D-06
 IDIUse=1 WtCom= 1.00D+00 WtEn= 0.00D+00
 Coeff-Com: -0.499D-03 0.186D-03 0.468D-02 0.150D-01 0.699D-01 0.137D+00
 Coeff-Com:  0.773D+00
 Coeff:     -0.499D-03 0.186D-03 0.468D-02 0.150D-01 0.699D-01 0.137D+00
 Coeff:      0.773D+00
 Gap=     0.368 Goal=   None    Shift=    0.000
 RMSDP=9.32D-07 MaxDP=2.72D-05 DE=-2.25D-06 OVMax= 4.69D-05

 Cycle   8  Pass 1  IDiag  1:
 E= -476.949815310243     Delta-E=       -0.000000023157 Rises=F Damp=F
 DIIS: error= 7.36D-06 at cycle   8 NSaved=   8.
 NSaved= 8 IEnMin= 8 EnMin= -476.949815310243     IErMin= 8 ErrMin= 7.36D-06
 ErrMax= 7.36D-06  0.00D+00 EMaxC= 1.00D-01 BMatC= 9.72D-09 BMatP= 4.18D-08
 IDIUse=1 WtCom= 1.00D+00 WtEn= 0.00D+00
 Coeff-Com: -0.930D-04-0.658D-04 0.335D-03 0.191D-02 0.116D-01 0.359D-01
 Coeff-Com:  0.374D+00 0.576D+00
 Coeff:     -0.930D-04-0.658D-04 0.335D-03 0.191D-02 0.116D-01 0.359D-01
 Coeff:      0.374D+00 0.576D+00
 Gap=     0.368 Goal=   None    Shift=    0.000
 RMSDP=3.06D-07 MaxDP=1.34D-05 DE=-2.32D-08 OVMax= 1.64D-05

 Cycle   9  Pass 1  IDiag  1:
 E= -476.949815315392     Delta-E=       -0.000000005149 Rises=F Damp=F
 DIIS: error= 2.35D-06 at cycle   9 NSaved=   9.
 NSaved= 9 IEnMin= 9 EnMin= -476.949815315392     IErMin= 9 ErrMin= 2.35D-06
 ErrMax= 2.35D-06  0.00D+00 EMaxC= 1.00D-01 BMatC= 1.20D-09 BMatP= 9.72D-09
 IDIUse=1 WtCom= 1.00D+00 WtEn= 0.00D+00
 Coeff-Com: -0.162D-04-0.372D-04-0.128D-03 0.228D-04 0.122D-02 0.797D-02
 Coeff-Com:  0.137D+00 0.310D+00 0.543D+00
 Coeff:     -0.162D-04-0.372D-04-0.128D-03 0.228D-04 0.122D-02 0.797D-02
 Coeff:      0.137D+00 0.310D+00 0.543D+00
 Gap=     0.368 Goal=   None    Shift=    0.000
 RMSDP=9.93D-08 MaxDP=2.69D-06 DE=-5.15D-09 OVMax= 4.86D-06

 Cycle  10  Pass 1  IDiag  1:
 E= -476.949815316020     Delta-E=       -0.000000000627 Rises=F Damp=F
 DIIS: error= 5.00D-07 at cycle  10 NSaved=  10.
 NSaved=10 IEnMin=10 EnMin= -476.949815316020     IErMin=10 ErrMin= 5.00D-07
 ErrMax= 5.00D-07  0.00D+00 EMaxC= 1.00D-01 BMatC= 4.61D-11 BMatP= 1.20D-09
 IDIUse=1 WtCom= 1.00D+00 WtEn= 0.00D+00
 Coeff-Com:  0.204D-05-0.147D-04-0.129D-03-0.237D-03-0.833D-03-0.109D-03
 Coeff-Com:  0.297D-01 0.855D-01 0.232D+00 0.654D+00
 Coeff:      0.204D-05-0.147D-04-0.129D-03-0.237D-03-0.833D-03-0.109D-03
 Coeff:      0.297D-01 0.855D-01 0.232D+00 0.654D+00
 Gap=     0.368 Goal=   None    Shift=    0.000
 RMSDP=2.62D-08 MaxDP=1.12D-06 DE=-6.27D-10 OVMax= 1.25D-06

 Cycle  11  Pass 1  IDiag  1:
 E= -476.949815316055     Delta-E=       -0.000000000035 Rises=F Damp=F
 DIIS: error= 4.98D-08 at cycle  11 NSaved=  11.
 NSaved=11 IEnMin=11 EnMin= -476.949815316055     IErMin=11 ErrMin= 4.98D-08
 ErrMax= 4.98D-08  0.00D+00 EMaxC= 1.00D-01 BMatC= 8.96D-13 BMatP= 4.61D-11
 IDIUse=1 WtCom= 1.00D+00 WtEn= 0.00D+00
 Coeff-Com:  0.103D-05-0.151D-05-0.220D-04-0.464D-04-0.236D-03-0.363D-03
 Coeff-Com:  0.224D-03 0.347D-02 0.278D-01 0.177D+00 0.792D+00
 Coeff:      0.103D-05-0.151D-05-0.220D-04-0.464D-04-0.236D-03-0.363D-03
 Coeff:      0.224D-03 0.347D-02 0.278D-01 0.177D+00 0.792D+00
 Gap=     0.368 Goal=   None    Shift=    0.000
 RMSDP=4.00D-09 MaxDP=1.55D-07 DE=-3.52D-11 OVMax= 1.53D-07

 SCF Done:  E(RB3LYP) =  -476.949815316     A.U. after   11 cycles
            NFock= 11  Conv=0.40D-08     -V/T= 2.0028
 KE= 4.756122085171D+02 PE=-1.675570325909D+03 EE= 4.517644610520D+02
 Leave Link  502 at Fri Sep  6 11:31:30 2024, MaxMem=  1610612736 cpu:              27.3 elap:               2.6
 (Enter /Users/asuyarger/Applications/G16/g16/l601.exe)
 Copying SCF densities to generalized density rwf, IOpCl= 0 IROHF=0.

 **********************************************************************

            Population analysis using the SCF density.

 **********************************************************************

 Orbital symmetries:
       Occupied  (A') (A") (A') (A') (A') (A') (A') (A') (A") (A')
                 (A') (A') (A') (A") (A') (A') (A") (A') (A") (A')
                 (A') (A") (A") (A") (A')
       Virtual   (A') (A') (A") (A') (A") (A') (A') (A') (A") (A')
                 (A') (A") (A') (A') (A") (A') (A') (A") (A') (A')
                 (A') (A") (A') (A") (A') (A') (A") (A") (A') (A')
                 (A") (A') (A") (A') (A') (A") (A') (A") (A') (A')
                 (A') (A") (A") (A') (A') (A") (A') (A") (A') (A')
                 (A') (A') (A") (A") (A') (A') (A') (A") (A') (A')
                 (A") (A') (A") (A") (A') (A') (A") (A') (A') (A")
                 (A') (A") (A') (A") (A') (A") (A') (A') (A") (A")
                 (A") (A') (A') (A") (A') (A") (A') (A') (A") (A')
                 (A") (A') (A') (A') (A") (A') (A') (A") (A') (A")
                 (A') (A") (A') (A') (A') (A") (A") (A') (A') (A")
                 (A') (A') (A") (A') (A") (A') (A") (A') (A') (A')
                 (A") (A") (A") (A') (A') (A") (A') (A') (A') (A')
                 (A") (A") (A') (A") (A') (A') (A") (A") (A') (A")
                 (A") (A") (A') (A') (A") (A') (A") (A') (A') (A')
                 (A") (A') (A") (A') (A') (A') (A") (A') (A') (A')
                 (A") (A') (A')
 The electronic state is 1-A'.
 Alpha  occ. eigenvalues --  -24.73818 -24.73199 -24.73198 -24.70311 -10.44712
 Alpha  occ. eigenvalues --  -10.28620  -1.33460  -1.25509  -1.24952  -1.24510
 Alpha  occ. eigenvalues --   -0.80075  -0.69874  -0.62232  -0.62117  -0.59731
 Alpha  occ. eigenvalues --   -0.54067  -0.53700  -0.49147  -0.49137  -0.46749
 Alpha  occ. eigenvalues --   -0.45531  -0.45463  -0.43746  -0.38796  -0.37758
 Alpha virt. eigenvalues --   -0.00994   0.01499   0.02160   0.03401   0.06371
 Alpha virt. eigenvalues --    0.07125   0.07978   0.10089   0.10470   0.11145
 Alpha virt. eigenvalues --    0.12827   0.12938   0.16181   0.17113   0.17965
 Alpha virt. eigenvalues --    0.18741   0.20478   0.22137   0.24963   0.25985
 Alpha virt. eigenvalues --    0.26976   0.28519   0.28832   0.30069   0.32505
 Alpha virt. eigenvalues --    0.33582   0.33967   0.34428   0.35482   0.37112
 Alpha virt. eigenvalues --    0.38303   0.40017   0.40587   0.41208   0.43926
 Alpha virt. eigenvalues --    0.45570   0.50996   0.52557   0.53825   0.56653
 Alpha virt. eigenvalues --    0.65657   0.66221   0.70186   0.70281   0.75062
 Alpha virt. eigenvalues --    0.79017   0.80263   0.87939   0.91135   0.93284
 Alpha virt. eigenvalues --    0.94106   1.05627   1.06419   1.13808   1.16114
 Alpha virt. eigenvalues --    1.16927   1.27290   1.28043   1.28210   1.31385
 Alpha virt. eigenvalues --    1.32745   1.34755   1.37015   1.37079   1.37578
 Alpha virt. eigenvalues --    1.40354   1.42143   1.44201   1.50894   1.50927
 Alpha virt. eigenvalues --    1.54006   1.78917   1.83208   1.84503   1.87784
 Alpha virt. eigenvalues --    1.89774   1.92753   1.93733   1.95291   2.00961
 Alpha virt. eigenvalues --    2.04021   2.04280   2.09161   2.09566   2.10225
 Alpha virt. eigenvalues --    2.13322   2.16921   2.26473   2.26881   2.38084
 Alpha virt. eigenvalues --    2.39234   2.41407   2.52102   2.56321   2.57340
 Alpha virt. eigenvalues --    2.68483   2.71546   2.75189   2.79171   2.96035
 Alpha virt. eigenvalues --    2.97408   2.98675   3.00551   3.32513   3.36859
 Alpha virt. eigenvalues --    3.39994   3.45384   3.45457   3.46612   3.46790
 Alpha virt. eigenvalues --    3.48341   3.50159   3.50935   3.51549   4.17332
 Alpha virt. eigenvalues --    4.19448   4.21084   4.21748   4.36100   6.27642
 Alpha virt. eigenvalues --    6.28491   6.30944   6.34107   6.35313   6.36612
 Alpha virt. eigenvalues --    6.37675   6.37879   6.42416   6.63686   6.71580
 Alpha virt. eigenvalues --    6.71923   8.27191   8.31955   8.36502   8.37602
 Alpha virt. eigenvalues --    8.55266   8.63288   8.98234   9.01499   9.01984
 Alpha virt. eigenvalues --    9.08010   9.09371   9.10308   9.11527   9.14165
 Alpha virt. eigenvalues --    9.15290   9.21775   9.23717   9.34458   9.39010
 Alpha virt. eigenvalues --    9.41898   9.56453   9.60870   9.62067   9.69589
 Alpha virt. eigenvalues --    9.77149   9.77379  23.81185  24.00164  66.79869
 Alpha virt. eigenvalues --   66.80442  66.81918  66.87348
     Molecular Orbital Coefficients:
                           1         2         3         4         5
                           O         O         O         O         O
     Eigenvalues --   -24.73818 -24.73199 -24.73198 -24.70311 -10.44712
   1 1   C  1S          0.00003   0.00000   0.00005   0.00001   0.56339
   2        2S         -0.00012   0.00000  -0.00018  -0.00002   0.46319
   3        2PX        -0.00012   0.00000   0.00013   0.00003  -0.00071
   4        2PY        -0.00013   0.00000   0.00001  -0.00003   0.00121
   5        2PZ         0.00000  -0.00020   0.00000   0.00000   0.00000
   6        3S         -0.00005   0.00000  -0.00005   0.00018   0.01817
   7        3PX         0.00121   0.00000  -0.00148  -0.00022   0.00009
   8        3PY         0.00143   0.00000  -0.00004   0.00009  -0.00028
   9        3PZ         0.00000   0.00214   0.00000   0.00000   0.00000
  10        4S          0.00717   0.00000   0.01122  -0.00001  -0.01125
  11        4PX         0.00458   0.00000  -0.00452  -0.00033  -0.00121
  12        4PY         0.00434   0.00000  -0.00129   0.00117   0.00202
  13        4PZ         0.00000   0.00750   0.00000   0.00000   0.00000
  14        5S         -0.00562   0.00000  -0.00906   0.00485   0.00029
  15        5PX        -0.00074   0.00000  -0.00133   0.00049  -0.00035
  16        5PY         0.00142   0.00000   0.00217  -0.00100   0.00032
  17        5PZ         0.00000  -0.00001   0.00000   0.00000   0.00000
  18        6D 0       -0.00006   0.00000   0.00009   0.00000   0.00009
  19        6D+1        0.00000  -0.00019   0.00000   0.00000   0.00000
  20        6D-1        0.00000   0.00006   0.00000   0.00000   0.00000
  21        6D+2       -0.00008   0.00000   0.00008  -0.00004   0.00006
  22        6D-2        0.00013   0.00000  -0.00001  -0.00001   0.00014
  23        7D 0       -0.00112   0.00000   0.00131   0.00052   0.00040
  24        7D+1        0.00000  -0.00209   0.00000   0.00000   0.00000
  25        7D-1        0.00000  -0.00010   0.00000   0.00000   0.00000
  26        7D+2       -0.00029   0.00000   0.00065   0.00060   0.00028
  27        7D-2        0.00140   0.00000  -0.00035  -0.00016   0.00065
  28 2   F  1S         -0.00009   0.38727   0.38727  -0.00004  -0.00003
  29        2S         -0.00009   0.33365   0.33364  -0.00005  -0.00010
  30        2PX        -0.00002   0.00036   0.00037  -0.00001   0.00009
  31        2PY        -0.00000  -0.00001   0.00001   0.00003  -0.00000
  32        2PZ        -0.00000  -0.00052  -0.00051   0.00000  -0.00012
  33        3S          0.00006   0.00919   0.00928   0.00012   0.00094
  34        3PX         0.00008   0.00005  -0.00000   0.00003   0.00004
  35        3PY         0.00003  -0.00001  -0.00007  -0.00011  -0.00000
  36        3PZ         0.00001   0.00003  -0.00007  -0.00002  -0.00005
  37        4S          0.00017  -0.00887  -0.00876  -0.00045  -0.00251
  38        4PX        -0.00021  -0.00195  -0.00143  -0.00034  -0.00125
  39        4PY        -0.00030   0.00018   0.00029   0.00028   0.00004
  40        4PZ        -0.00022   0.00209   0.00246   0.00037   0.00179
  41        5S          0.00017   0.00054   0.00050  -0.00106   0.00267
  42        5PX        -0.00054  -0.00007   0.00037  -0.00023   0.00145
  43        5PY        -0.00058  -0.00011  -0.00011  -0.00003  -0.00076
  44        5PZ         0.00009  -0.00065   0.00035   0.00019  -0.00142
  45        6D 0       -0.00002   0.00007   0.00011  -0.00001   0.00015
  46        6D+1       -0.00000  -0.00016  -0.00013  -0.00002  -0.00023
  47        6D-1       -0.00001   0.00001   0.00001   0.00001   0.00002
  48        6D+2       -0.00000   0.00006   0.00005  -0.00002   0.00009
  49        6D-2        0.00002  -0.00000  -0.00001  -0.00002  -0.00000
  50        7D 0        0.00009  -0.00022  -0.00035   0.00001  -0.00062
  51        7D+1       -0.00001   0.00056   0.00040   0.00009   0.00098
  52        7D-1        0.00005  -0.00004  -0.00003  -0.00003  -0.00007
  53        7D+2        0.00002  -0.00018  -0.00016   0.00004  -0.00038
  54        7D-2       -0.00010   0.00002   0.00003   0.00005   0.00001
  55 3   F  1S          0.54768   0.00000   0.00013  -0.00002  -0.00003
  56        2S          0.47184   0.00000   0.00010  -0.00003  -0.00010
  57        2PX        -0.00055   0.00000   0.00000   0.00001  -0.00009
  58        2PY        -0.00070   0.00000   0.00001   0.00000  -0.00012
  59        2PZ         0.00000  -0.00002   0.00000   0.00000   0.00000
  60        3S          0.01305   0.00000   0.00009   0.00004   0.00094
  61        3PX         0.00002   0.00000  -0.00003  -0.00005  -0.00004
  62        3PY        -0.00006   0.00000  -0.00004  -0.00001  -0.00005
  63        3PZ         0.00000   0.00010   0.00000   0.00000   0.00000
  64        4S         -0.01244   0.00000   0.00028   0.00008  -0.00250
  65        4PX         0.00224   0.00000   0.00005  -0.00009   0.00136
  66        4PY         0.00331   0.00000  -0.00024  -0.00020   0.00165
  67        4PZ         0.00000  -0.00060   0.00000   0.00000   0.00000
  68        5S          0.00086   0.00000   0.00052   0.00105   0.00265
  69        5PX        -0.00007   0.00000   0.00069   0.00014  -0.00057
  70        5PY        -0.00042   0.00000  -0.00004  -0.00070  -0.00196
  71        5PZ         0.00000  -0.00085   0.00000   0.00000   0.00000
  72        6D 0       -0.00013   0.00000   0.00002   0.00001  -0.00013
  73        6D+1        0.00000  -0.00004   0.00000   0.00000   0.00000
  74        6D-1        0.00000  -0.00002   0.00000   0.00000   0.00000
  75        6D+2       -0.00006   0.00000   0.00002  -0.00001  -0.00006
  76        6D-2        0.00021   0.00000  -0.00000   0.00000   0.00025
  77        7D 0        0.00041   0.00000  -0.00009  -0.00006   0.00056
  78        7D+1        0.00000   0.00016   0.00000   0.00000   0.00000
  79        7D-1        0.00000   0.00006   0.00000   0.00000   0.00000
  80        7D+2        0.00021   0.00000  -0.00009   0.00004   0.00026
  81        7D-2       -0.00068   0.00000   0.00003  -0.00000  -0.00103
  82 4   C  1S          0.00001   0.00000   0.00001   0.00003   0.00037
  83        2S         -0.00003   0.00000  -0.00003  -0.00012   0.00026
  84        2PX        -0.00002   0.00000  -0.00002   0.00008  -0.00026
  85        2PY         0.00006   0.00000   0.00005   0.00009   0.00035
  86        2PZ         0.00000   0.00002   0.00000   0.00000   0.00000
  87        3S          0.00031   0.00000   0.00026  -0.00006   0.00047
  88        3PX         0.00018   0.00000   0.00008  -0.00110   0.00075
  89        3PY        -0.00020   0.00000  -0.00023  -0.00129  -0.00065
  90        3PZ         0.00000   0.00003   0.00000   0.00000   0.00000
  91        4S         -0.00039   0.00000  -0.00007   0.00780   0.00898
  92        4PX        -0.00061   0.00000   0.00061  -0.00733   0.00090
  93        4PY        -0.00038   0.00000  -0.00178  -0.00646  -0.00174
  94        4PZ         0.00000  -0.00069   0.00000   0.00000   0.00000
  95        5S          0.00293   0.00000   0.00698  -0.00796  -0.00287
  96        5PX        -0.00088   0.00000  -0.00144   0.00048   0.00001
  97        5PY         0.00095   0.00000   0.00166  -0.00107  -0.00047
  98        5PZ         0.00000  -0.00040   0.00000   0.00000   0.00000
  99        6D 0        0.00001   0.00000  -0.00001  -0.00008   0.00000
 100        6D+1        0.00000   0.00003   0.00000   0.00000   0.00000
 101        6D-1        0.00000  -0.00000   0.00000   0.00000   0.00000
 102        6D+2       -0.00001   0.00000  -0.00001  -0.00004   0.00001
 103        6D-2       -0.00003   0.00000  -0.00003   0.00015  -0.00004
 104        7D 0        0.00027   0.00000  -0.00008  -0.00127   0.00102
 105        7D+1        0.00000   0.00029   0.00000   0.00000   0.00000
 106        7D-1        0.00000  -0.00021   0.00000   0.00000   0.00000
 107        7D+2        0.00039   0.00000  -0.00001  -0.00048   0.00056
 108        7D-2       -0.00004   0.00000   0.00059   0.00146   0.00139
 109 5   H  1S          0.00004  -0.00002   0.00006   0.00007   0.00002
 110        2S         -0.00028   0.00017  -0.00020   0.00050  -0.00206
 111        3S         -0.00022   0.00092   0.00008   0.00154  -0.00132
 112        4S          0.00061  -0.00084   0.00032   0.00081   0.00090
 113        5PX        -0.00001  -0.00000  -0.00002   0.00001  -0.00001
 114        5PY         0.00001   0.00002   0.00002   0.00001  -0.00002
 115        5PZ         0.00002  -0.00000   0.00001   0.00001   0.00002
 116        6PX         0.00004   0.00002   0.00007  -0.00008   0.00018
 117        6PY         0.00001  -0.00010  -0.00009   0.00000   0.00003
 118        6PZ        -0.00010   0.00004  -0.00006   0.00002  -0.00025
 119        7PX         0.00033  -0.00045  -0.00000   0.00085   0.00041
 120        7PY        -0.00042   0.00048   0.00020   0.00123   0.00023
 121        7PZ        -0.00006   0.00021  -0.00003   0.00051  -0.00059
 122 6   H  1S          0.00004   0.00002   0.00006   0.00007   0.00002
 123        2S         -0.00028  -0.00017  -0.00020   0.00050  -0.00206
 124        3S         -0.00022  -0.00092   0.00008   0.00154  -0.00132
 125        4S          0.00061   0.00084   0.00032   0.00081   0.00090
 126        5PX        -0.00001   0.00000  -0.00002   0.00001  -0.00001
 127        5PY         0.00001  -0.00002   0.00002   0.00001  -0.00002
 128        5PZ        -0.00002  -0.00000  -0.00001  -0.00001  -0.00002
 129        6PX         0.00004  -0.00002   0.00007  -0.00008   0.00018
 130        6PY         0.00001   0.00010  -0.00009   0.00000   0.00003
 131        6PZ         0.00010   0.00004   0.00006  -0.00002   0.00025
 132        7PX         0.00033   0.00045  -0.00000   0.00085   0.00041
 133        7PY        -0.00042  -0.00048   0.00020   0.00123   0.00023
 134        7PZ         0.00006   0.00021   0.00003  -0.00051   0.00059
 135 7   F  1S         -0.00009  -0.38727   0.38727  -0.00004  -0.00003
 136        2S         -0.00009  -0.33365   0.33364  -0.00005  -0.00010
 137        2PX        -0.00002  -0.00036   0.00037  -0.00001   0.00009
 138        2PY        -0.00000   0.00001   0.00001   0.00003  -0.00000
 139        2PZ         0.00000  -0.00052   0.00051  -0.00000   0.00012
 140        3S          0.00006  -0.00919   0.00928   0.00012   0.00094
 141        3PX         0.00008  -0.00005  -0.00000   0.00003   0.00004
 142        3PY         0.00003   0.00001  -0.00007  -0.00011  -0.00000
 143        3PZ        -0.00001   0.00003   0.00007   0.00002   0.00005
 144        4S          0.00017   0.00887  -0.00876  -0.00045  -0.00251
 145        4PX        -0.00021   0.00195  -0.00143  -0.00034  -0.00125
 146        4PY        -0.00030  -0.00018   0.00029   0.00028   0.00004
 147        4PZ         0.00022   0.00209  -0.00246  -0.00037  -0.00179
 148        5S          0.00017  -0.00054   0.00050  -0.00106   0.00267
 149        5PX        -0.00054   0.00007   0.00037  -0.00023   0.00145
 150        5PY        -0.00058   0.00011  -0.00011  -0.00003  -0.00076
 151        5PZ        -0.00009  -0.00065  -0.00035  -0.00019   0.00142
 152        6D 0       -0.00002  -0.00007   0.00011  -0.00001   0.00015
 153        6D+1        0.00000  -0.00016   0.00013   0.00002   0.00023
 154        6D-1        0.00001   0.00001  -0.00001  -0.00001  -0.00002
 155        6D+2       -0.00000  -0.00006   0.00005  -0.00002   0.00009
 156        6D-2        0.00002   0.00000  -0.00001  -0.00002  -0.00000
 157        7D 0        0.00009   0.00022  -0.00035   0.00001  -0.00062
 158        7D+1        0.00001   0.00056  -0.00040  -0.00009  -0.00098
 159        7D-1       -0.00005  -0.00004   0.00003   0.00003   0.00007
 160        7D+2        0.00002   0.00018  -0.00016   0.00004  -0.00038
 161        7D-2       -0.00010  -0.00002   0.00003   0.00005   0.00001
 162 8   F  1S          0.00002   0.00000   0.00006   0.54768  -0.00000
 163        2S          0.00001   0.00000   0.00003   0.47182  -0.00001
 164        2PX        -0.00000   0.00000   0.00002   0.00057  -0.00002
 165        2PY        -0.00000   0.00000  -0.00003   0.00072   0.00003
 166        2PZ         0.00000  -0.00001   0.00000   0.00000   0.00000
 167        3S          0.00005   0.00000   0.00017   0.01318   0.00014
 168        3PX         0.00001   0.00000  -0.00007  -0.00003   0.00009
 169        3PY         0.00002   0.00000   0.00011   0.00008  -0.00014
 170        3PZ         0.00000   0.00004   0.00000   0.00000   0.00000
 171        4S         -0.00010   0.00000  -0.00069  -0.01330  -0.00144
 172        4PX         0.00011   0.00000  -0.00012  -0.00237  -0.00074
 173        4PY        -0.00000   0.00000  -0.00073  -0.00358  -0.00035
 174        4PZ         0.00000  -0.00008   0.00000   0.00000   0.00000
 175        5S          0.00072   0.00000  -0.00176  -0.00133  -0.00136
 176        5PX        -0.00008   0.00000  -0.00030  -0.00043  -0.00017
 177        5PY         0.00039   0.00000  -0.00050  -0.00045  -0.00052
 178        5PZ         0.00000   0.00007   0.00000   0.00000   0.00000
 179        6D 0        0.00000   0.00000  -0.00003  -0.00013   0.00004
 180        6D+1        0.00000  -0.00002   0.00000   0.00000   0.00000
 181        6D-1        0.00000   0.00002   0.00000   0.00000   0.00000
 182        6D+2       -0.00001   0.00000  -0.00002  -0.00007   0.00002
 183        6D-2        0.00000   0.00000  -0.00001   0.00020   0.00004
 184        7D 0       -0.00002   0.00000   0.00012   0.00043  -0.00013
 185        7D+1        0.00000   0.00005   0.00000   0.00000   0.00000
 186        7D-1        0.00000  -0.00006   0.00000   0.00000   0.00000
 187        7D+2        0.00006   0.00000   0.00010   0.00022  -0.00006
 188        7D-2       -0.00001   0.00000   0.00001  -0.00065  -0.00020
                           6         7         8         9        10
                           O         O         O         O         O
     Eigenvalues --   -10.28620  -1.33460  -1.25509  -1.24952  -1.24510
   1 1   C  1S         -0.00038  -0.05597   0.00097   0.00000   0.00219
   2        2S         -0.00038  -0.08570   0.00146   0.00000   0.00346
   3        2PX         0.00018  -0.01413   0.05314   0.00000   0.02942
   4        2PY        -0.00038   0.02571   0.03789   0.00000   0.00754
   5        2PZ         0.00000   0.00000   0.00000   0.07165   0.00000
   6        3S          0.00043   0.23822  -0.00288   0.00000  -0.01267
   7        3PX         0.00012  -0.01695   0.06390   0.00000   0.03852
   8        3PY         0.00043   0.03042   0.04815   0.00000   0.00451
   9        3PZ         0.00000   0.00000   0.00000   0.08768   0.00000
  10        4S          0.00921  -0.13582  -0.00833   0.00000   0.04186
  11        4PX        -0.00010   0.00282  -0.02867   0.00000  -0.01214
  12        4PY         0.00099  -0.00591  -0.00930   0.00000  -0.03488
  13        4PZ         0.00000   0.00000   0.00000  -0.03636   0.00000
  14        5S          0.00058   0.09929   0.01094   0.00000  -0.05234
  15        5PX         0.00021   0.01471   0.00227   0.00000  -0.00608
  16        5PY         0.00042  -0.02708  -0.00106   0.00000   0.01032
  17        5PZ         0.00000   0.00000   0.00000   0.00126   0.00000
  18        6D 0       -0.00003   0.00320  -0.01090   0.00000  -0.00676
  19        6D+1        0.00000   0.00000   0.00000  -0.01829   0.00000
  20        6D-1        0.00000   0.00000   0.00000   0.00161   0.00000
  21        6D+2       -0.00001   0.00238  -0.00588   0.00000  -0.00427
  22        6D-2       -0.00018   0.00609   0.01034   0.00000   0.00421
  23        7D 0        0.00008   0.00042  -0.00284   0.00000  -0.00341
  24        7D+1        0.00000   0.00000   0.00000  -0.00643   0.00000
  25        7D-1        0.00000   0.00000   0.00000   0.00097   0.00000
  26        7D+2        0.00012  -0.00037  -0.00044   0.00000  -0.00537
  27        7D-2        0.00214   0.00152   0.00513   0.00000  -0.00294
  28 2   F  1S         -0.00000  -0.06267   0.04460  -0.08817   0.02915
  29        2S         -0.00001  -0.10109   0.07213  -0.14265   0.04719
  30        2PX         0.00001   0.01716  -0.00555   0.01924  -0.00362
  31        2PY        -0.00003   0.00081   0.00404  -0.00091   0.00007
  32        2PZ        -0.00000  -0.02535   0.01387  -0.02076   0.00878
  33        3S          0.00013   0.29494  -0.21354   0.42292  -0.14026
  34        3PX        -0.00005   0.02749  -0.00958   0.03112  -0.00683
  35        3PY         0.00015   0.00152   0.00546  -0.00125   0.00083
  36        3PZ        -0.00001  -0.04071   0.02237  -0.03495   0.01458
  37        4S         -0.00106   0.25443  -0.17331   0.34414  -0.11649
  38        4PX        -0.00010   0.02783  -0.00808   0.02854  -0.00463
  39        4PY        -0.00023  -0.00018   0.00721  -0.00198  -0.00108
  40        4PZ         0.00051  -0.04012   0.02072  -0.02922   0.01226
  41        5S         -0.00043   0.00596   0.00427  -0.01577   0.00776
  42        5PX         0.00001  -0.00023   0.00653  -0.00394   0.00528
  43        5PY        -0.00012   0.00460   0.00246   0.00153   0.00316
  44        5PZ         0.00019  -0.00264  -0.00163   0.01192  -0.00151
  45        6D 0        0.00003   0.00092  -0.00072   0.00062  -0.00041
  46        6D+1        0.00001  -0.00132   0.00055  -0.00154   0.00046
  47        6D-1        0.00002  -0.00007  -0.00019   0.00007  -0.00010
  48        6D+2        0.00002   0.00048  -0.00020   0.00056  -0.00004
  49        6D-2        0.00005   0.00011   0.00021  -0.00004   0.00012
  50        7D 0       -0.00012   0.00559  -0.00362   0.00480  -0.00262
  51        7D+1       -0.00002  -0.00877   0.00452  -0.00941   0.00239
  52        7D-1       -0.00012   0.00007  -0.00124   0.00036   0.00031
  53        7D+2       -0.00008   0.00299  -0.00083   0.00373  -0.00146
  54        7D-2       -0.00019  -0.00005   0.00087  -0.00030  -0.00035
  55 3   F  1S         -0.00000  -0.06728  -0.09297   0.00000  -0.03722
  56        2S         -0.00001  -0.10855  -0.15041   0.00000  -0.06025
  57        2PX        -0.00001  -0.02087  -0.01643   0.00000  -0.00534
  58        2PY        -0.00003  -0.02431  -0.02445   0.00000  -0.00959
  59        2PZ         0.00000   0.00000   0.00000   0.00615   0.00000
  60        3S          0.00024   0.31713   0.44601   0.00000   0.17887
  61        3PX         0.00003  -0.03373  -0.02782   0.00000  -0.00919
  62        3PY         0.00016  -0.03904  -0.03994   0.00000  -0.01623
  63        3PZ         0.00000   0.00000   0.00000   0.00884   0.00000
  64        4S         -0.00270   0.27253   0.36149   0.00000   0.14875
  65        4PX         0.00096  -0.03131  -0.02232   0.00000  -0.00840
  66        4PY         0.00101  -0.03917  -0.03682   0.00000  -0.01325
  67        4PZ         0.00000   0.00000   0.00000   0.00964   0.00000
  68        5S         -0.00134   0.00006  -0.01059   0.00000  -0.01311
  69        5PX         0.00048  -0.00453   0.00869   0.00000   0.00255
  70        5PY         0.00013   0.00530   0.00564   0.00000   0.01050
  71        5PZ         0.00000   0.00000   0.00000   0.00765   0.00000
  72        6D 0        0.00002  -0.00084  -0.00091   0.00000  -0.00041
  73        6D+1        0.00000   0.00000   0.00000  -0.00041   0.00000
  74        6D-1        0.00000   0.00000   0.00000  -0.00031   0.00000
  75        6D+2        0.00002  -0.00019  -0.00048   0.00000  -0.00029
  76        6D-2        0.00005   0.00154   0.00149   0.00000   0.00051
  77        7D 0       -0.00005  -0.00561  -0.00602   0.00000  -0.00205
  78        7D+1        0.00000   0.00000   0.00000  -0.00108   0.00000
  79        7D-1        0.00000   0.00000   0.00000  -0.00142   0.00000
  80        7D+2       -0.00006  -0.00198  -0.00299   0.00000  -0.00125
  81        7D-2       -0.00027   0.00963   0.00960   0.00000   0.00389
  82 4   C  1S          0.56303  -0.00833   0.01494   0.00000  -0.03180
  83        2S          0.46302  -0.01256   0.02273   0.00000  -0.04847
  84        2PX        -0.00110  -0.00571   0.01576   0.00000  -0.02728
  85        2PY        -0.00068   0.00285   0.01835   0.00000  -0.03630
  86        2PZ         0.00000   0.00000   0.00000   0.00313   0.00000
  87        3S          0.02084   0.02860  -0.05930   0.00000   0.12684
  88        3PX         0.00248  -0.01349   0.02174   0.00000  -0.03514
  89        3PY         0.00008   0.01306   0.02276   0.00000  -0.04356
  90        3PZ         0.00000   0.00000   0.00000   0.00664   0.00000
  91        4S         -0.00587   0.04131   0.04482   0.00000  -0.08567
  92        4PX         0.00893  -0.00932  -0.00056   0.00000   0.05797
  93        4PY        -0.00113   0.03743  -0.01721   0.00000   0.03956
  94        4PZ         0.00000   0.00000   0.00000   0.02015   0.00000
  95        5S         -0.00699  -0.06503  -0.01169   0.00000   0.08112
  96        5PX        -0.00112   0.01853   0.00170   0.00000  -0.00598
  97        5PY        -0.00038  -0.01865  -0.00238   0.00000   0.01249
  98        5PZ         0.00000   0.00000   0.00000   0.00781   0.00000
  99        6D 0        0.00014  -0.00137   0.00272   0.00000  -0.00680
 100        6D+1        0.00000   0.00000   0.00000  -0.00120   0.00000
 101        6D-1        0.00000   0.00000   0.00000   0.00075   0.00000
 102        6D+2        0.00012  -0.00067   0.00034   0.00000  -0.00326
 103        6D-2        0.00015  -0.00025  -0.00443   0.00000   0.01142
 104        7D 0        0.00275  -0.00390   0.00351   0.00000   0.00047
 105        7D+1        0.00000   0.00000   0.00000   0.00414   0.00000
 106        7D-1        0.00000   0.00000   0.00000   0.00228   0.00000
 107        7D+2        0.00124  -0.00363  -0.00161   0.00000   0.00219
 108        7D-2        0.00005  -0.00787  -0.00141   0.00000   0.00139
 109 5   H  1S          0.00025   0.00211  -0.00351  -0.00054   0.00860
 110        2S         -0.00718   0.00468  -0.01204   0.00634   0.01497
 111        3S          0.00052  -0.00239  -0.00432  -0.00187  -0.00072
 112        4S          0.00167  -0.00790   0.00052   0.01122  -0.00929
 113        5PX        -0.00018   0.00004   0.00009  -0.00002  -0.00041
 114        5PY         0.00001  -0.00013   0.00013  -0.00004  -0.00035
 115        5PZ         0.00025  -0.00004  -0.00013  -0.00007   0.00019
 116        6PX         0.00173  -0.00117   0.00148   0.00009  -0.00133
 117        6PY        -0.00013   0.00089   0.00009   0.00033   0.00049
 118        6PZ        -0.00232   0.00131  -0.00074   0.00071   0.00229
 119        7PX        -0.00002  -0.00172   0.00264   0.00274  -0.01272
 120        7PY         0.00054  -0.00147   0.00851  -0.00489  -0.01036
 121        7PZ        -0.00134   0.00021  -0.00201  -0.00079   0.00007
 122 6   H  1S          0.00025   0.00211  -0.00351   0.00054   0.00860
 123        2S         -0.00718   0.00468  -0.01204  -0.00634   0.01497
 124        3S          0.00052  -0.00239  -0.00432   0.00187  -0.00072
 125        4S          0.00167  -0.00790   0.00052  -0.01122  -0.00929
 126        5PX        -0.00018   0.00004   0.00009   0.00002  -0.00041
 127        5PY         0.00001  -0.00013   0.00013   0.00004  -0.00035
 128        5PZ        -0.00025   0.00004   0.00013  -0.00007  -0.00019
 129        6PX         0.00173  -0.00117   0.00148  -0.00009  -0.00133
 130        6PY        -0.00013   0.00089   0.00009  -0.00033   0.00049
 131        6PZ         0.00232  -0.00131   0.00074   0.00071  -0.00229
 132        7PX        -0.00002  -0.00172   0.00264  -0.00274  -0.01272
 133        7PY         0.00054  -0.00147   0.00851   0.00489  -0.01036
 134        7PZ         0.00134  -0.00021   0.00201  -0.00079  -0.00007
 135 7   F  1S         -0.00000  -0.06267   0.04460   0.08817   0.02915
 136        2S         -0.00001  -0.10109   0.07213   0.14265   0.04719
 137        2PX         0.00001   0.01716  -0.00555  -0.01924  -0.00362
 138        2PY        -0.00003   0.00081   0.00404   0.00091   0.00007
 139        2PZ         0.00000   0.02535  -0.01387  -0.02076  -0.00878
 140        3S          0.00013   0.29494  -0.21354  -0.42292  -0.14026
 141        3PX        -0.00005   0.02749  -0.00958  -0.03112  -0.00683
 142        3PY         0.00015   0.00152   0.00546   0.00125   0.00083
 143        3PZ         0.00001   0.04071  -0.02237  -0.03495  -0.01458
 144        4S         -0.00106   0.25443  -0.17331  -0.34414  -0.11649
 145        4PX        -0.00010   0.02783  -0.00808  -0.02854  -0.00463
 146        4PY        -0.00023  -0.00018   0.00721   0.00198  -0.00108
 147        4PZ        -0.00051   0.04012  -0.02072  -0.02922  -0.01226
 148        5S         -0.00043   0.00596   0.00427   0.01577   0.00776
 149        5PX         0.00001  -0.00023   0.00653   0.00394   0.00528
 150        5PY        -0.00012   0.00460   0.00246  -0.00153   0.00316
 151        5PZ        -0.00019   0.00264   0.00163   0.01192   0.00151
 152        6D 0        0.00003   0.00092  -0.00072  -0.00062  -0.00041
 153        6D+1       -0.00001   0.00132  -0.00055  -0.00154  -0.00046
 154        6D-1       -0.00002   0.00007   0.00019   0.00007   0.00010
 155        6D+2        0.00002   0.00048  -0.00020  -0.00056  -0.00004
 156        6D-2        0.00005   0.00011   0.00021   0.00004   0.00012
 157        7D 0       -0.00012   0.00559  -0.00362  -0.00480  -0.00262
 158        7D+1        0.00002   0.00877  -0.00452  -0.00941  -0.00239
 159        7D-1        0.00012  -0.00007   0.00124   0.00036  -0.00031
 160        7D+2       -0.00008   0.00299  -0.00083  -0.00373  -0.00146
 161        7D-2       -0.00019  -0.00005   0.00087   0.00030  -0.00035
 162 8   F  1S         -0.00004  -0.00889   0.05106   0.00000  -0.10816
 163        2S         -0.00011  -0.01429   0.08247   0.00000  -0.17479
 164        2PX         0.00006   0.00179  -0.01099   0.00000   0.02396
 165        2PY         0.00012   0.00429  -0.01593   0.00000   0.03089
 166        2PZ         0.00000   0.00000   0.00000   0.00072   0.00000
 167        3S          0.00089   0.04073  -0.24237   0.00000   0.51456
 168        3PX         0.00023   0.00345  -0.01825   0.00000   0.03940
 169        3PY         0.00007   0.00595  -0.02473   0.00000   0.05088
 170        3PZ         0.00000   0.00000   0.00000   0.00086   0.00000
 171        4S         -0.00044   0.03905  -0.20014   0.00000   0.44132
 172        4PX        -0.00111   0.00299  -0.01592   0.00000   0.03827
 173        4PY        -0.00035   0.01001  -0.02631   0.00000   0.05036
 174        4PZ         0.00000   0.00000   0.00000   0.00193   0.00000
 175        5S          0.00701   0.00741  -0.01338   0.00000   0.01221
 176        5PX         0.00138   0.00344  -0.00082   0.00000   0.00035
 177        5PY         0.00284  -0.00079  -0.00311   0.00000  -0.00183
 178        5PZ         0.00000   0.00000   0.00000  -0.00243   0.00000
 179        6D 0       -0.00011  -0.00004   0.00048   0.00000  -0.00119
 180        6D+1        0.00000   0.00000   0.00000   0.00008   0.00000
 181        6D-1        0.00000   0.00000   0.00000  -0.00010   0.00000
 182        6D+2       -0.00003  -0.00001   0.00018   0.00000  -0.00052
 183        6D-2        0.00026   0.00020  -0.00097   0.00000   0.00188
 184        7D 0        0.00041  -0.00137   0.00413   0.00000  -0.00743
 185        7D+1        0.00000   0.00000   0.00000  -0.00038   0.00000
 186        7D-1        0.00000   0.00000   0.00000   0.00115   0.00000
 187        7D+2        0.00010  -0.00131   0.00238   0.00000  -0.00313
 188        7D-2       -0.00104   0.00102  -0.00530   0.00000   0.01252
                          11        12        13        14        15
                           O         O         O         O         O
     Eigenvalues --    -0.80075  -0.69874  -0.62232  -0.62117  -0.59731
   1 1   C  1S         -0.06287  -0.06134  -0.00237   0.00000   0.01239
   2        2S         -0.09906  -0.09792  -0.00372   0.00000   0.01931
   3        2PX         0.04235  -0.04151  -0.11848   0.00000  -0.08701
   4        2PY        -0.05839   0.05931  -0.10181   0.00000   0.09880
   5        2PZ         0.00000   0.00000   0.00000   0.15543   0.00000
   6        3S          0.28980   0.30569   0.01045   0.00000  -0.05199
   7        3PX         0.06202  -0.06250  -0.17642   0.00000  -0.13239
   8        3PY        -0.08678   0.09038  -0.15270   0.00000   0.14869
   9        3PZ         0.00000   0.00000   0.00000   0.23220   0.00000
  10        4S          0.14250   0.06314   0.02042   0.00000  -0.08673
  11        4PX         0.03161  -0.01417  -0.03594   0.00000  -0.05777
  12        4PY        -0.03829   0.02444  -0.03751   0.00000   0.05551
  13        4PZ         0.00000   0.00000   0.00000   0.05533   0.00000
  14        5S         -0.03169  -0.18151   0.00536   0.00000  -0.03719
  15        5PX        -0.00004  -0.02554   0.00753   0.00000  -0.01698
  16        5PY        -0.00638   0.04130  -0.00094   0.00000   0.03375
  17        5PZ         0.00000   0.00000   0.00000  -0.00789   0.00000
  18        6D 0       -0.00257   0.00220   0.00710   0.00000   0.00022
  19        6D+1        0.00000   0.00000   0.00000  -0.01207   0.00000
  20        6D-1        0.00000   0.00000   0.00000   0.00422   0.00000
  21        6D+2       -0.00151   0.00122   0.00759   0.00000   0.00061
  22        6D-2       -0.00398   0.00407  -0.00839   0.00000  -0.00299
  23        7D 0       -0.00325  -0.00059  -0.00027   0.00000  -0.00053
  24        7D+1        0.00000   0.00000   0.00000  -0.00035   0.00000
  25        7D-1        0.00000   0.00000   0.00000   0.00493   0.00000
  26        7D+2       -0.00080  -0.00101   0.00599   0.00000  -0.00350
  27        7D-2       -0.01035   0.00555  -0.00245   0.00000  -0.01371
  28 2   F  1S          0.02299   0.02715   0.01333   0.02447   0.00505
  29        2S          0.03763   0.04449   0.02186   0.04013   0.00826
  30        2PX         0.03596   0.05165   0.00347   0.13075  -0.01613
  31        2PY        -0.01827   0.01868  -0.05903  -0.00330   0.07902
  32        2PZ        -0.03258  -0.09764  -0.10064  -0.09944  -0.06542
  33        3S         -0.11770  -0.14027  -0.06921  -0.12681  -0.02553
  34        3PX         0.05156   0.07479   0.00491   0.18901  -0.02335
  35        3PY        -0.02638   0.02690  -0.08511  -0.00449   0.11359
  36        3PZ        -0.04646  -0.14115  -0.14564  -0.14387  -0.09426
  37        4S         -0.10801  -0.13198  -0.07319  -0.13464  -0.03004
  38        4PX         0.03614   0.05508  -0.00101   0.14348  -0.02182
  39        4PY        -0.02027   0.02247  -0.07013  -0.00463   0.09458
  40        4PZ        -0.03210  -0.10661  -0.10970  -0.10276  -0.07522
  41        5S         -0.00828   0.00263  -0.01725  -0.02237   0.01342
  42        5PX        -0.00592   0.00184  -0.00328   0.00639   0.00801
  43        5PY         0.00670  -0.00243  -0.00096   0.00138  -0.00443
  44        5PZ         0.00245  -0.00272  -0.00565  -0.00679  -0.00566
  45        6D 0        0.00030   0.00168   0.00201   0.00086   0.00131
  46        6D+1       -0.00111  -0.00207  -0.00107  -0.00328  -0.00051
  47        6D-1        0.00045  -0.00037   0.00104   0.00004  -0.00118
  48        6D+2        0.00049   0.00062  -0.00000   0.00150  -0.00012
  49        6D-2       -0.00041   0.00034  -0.00079  -0.00004   0.00079
  50        7D 0        0.00056   0.00683   0.00799   0.00076   0.00676
  51        7D+1       -0.00454  -0.00808  -0.00321  -0.01124  -0.00036
  52        7D-1        0.00287  -0.00224   0.00659   0.00063  -0.00739
  53        7D+2        0.00211   0.00211  -0.00192   0.00656  -0.00176
  54        7D-2       -0.00244   0.00170  -0.00385  -0.00059   0.00550
  55 3   F  1S          0.02495   0.02524  -0.02804   0.00000   0.00031
  56        2S          0.04085   0.04136  -0.04597   0.00000   0.00050
  57        2PX        -0.01445  -0.09037   0.10759   0.00000  -0.08058
  58        2PY        -0.05570  -0.06647   0.15571   0.00000   0.06007
  59        2PZ         0.00000   0.00000   0.00000   0.09263   0.00000
  60        3S         -0.12802  -0.13013   0.14529   0.00000  -0.00162
  61        3PX        -0.02063  -0.13048   0.15572   0.00000  -0.11584
  62        3PY        -0.07989  -0.09614   0.22516   0.00000   0.08612
  63        3PZ         0.00000   0.00000   0.00000   0.13400   0.00000
  64        4S         -0.11527  -0.12764   0.15439   0.00000   0.00714
  65        4PX        -0.01377  -0.09930   0.11361   0.00000  -0.10001
  66        4PY        -0.05793  -0.06975   0.16800   0.00000   0.06821
  67        4PZ         0.00000   0.00000   0.00000   0.10809   0.00000
  68        5S         -0.01502   0.00520   0.02023   0.00000   0.02502
  69        5PX        -0.00178  -0.00127   0.00804   0.00000  -0.00070
  70        5PY         0.01253  -0.00485   0.01118   0.00000  -0.01116
  71        5PZ         0.00000   0.00000   0.00000   0.00708   0.00000
  72        6D 0       -0.00070  -0.00128   0.00213   0.00000  -0.00006
  73        6D+1        0.00000   0.00000   0.00000  -0.00134   0.00000
  74        6D-1        0.00000   0.00000   0.00000  -0.00154   0.00000
  75        6D+2       -0.00100   0.00023   0.00109   0.00000   0.00176
  76        6D-2        0.00090   0.00245  -0.00349   0.00000   0.00048
  77        7D 0       -0.00310  -0.00509   0.00662   0.00000   0.00001
  78        7D+1        0.00000   0.00000   0.00000  -0.00595   0.00000
  79        7D-1        0.00000   0.00000   0.00000  -0.00914   0.00000
  80        7D+2       -0.00524   0.00164   0.00502   0.00000   0.01134
  81        7D-2        0.00307   0.00983  -0.01133   0.00000   0.00301
  82 4   C  1S         -0.08194   0.05236   0.00189   0.00000  -0.02577
  83        2S         -0.12785   0.08217   0.00292   0.00000  -0.04116
  84        2PX        -0.00207  -0.03134  -0.04610   0.00000   0.05550
  85        2PY         0.04603   0.01972  -0.00311   0.00000  -0.10640
  86        2PZ         0.00000   0.00000   0.00000   0.05337   0.00000
  87        3S          0.34806  -0.22800  -0.00659   0.00000   0.11868
  88        3PX        -0.01608  -0.04116  -0.06870   0.00000   0.07570
  89        3PY         0.06676   0.03536  -0.00516   0.00000  -0.15552
  90        3PZ         0.00000   0.00000   0.00000   0.07845   0.00000
  91        4S          0.13326  -0.06613   0.00913   0.00000  -0.00144
  92        4PX        -0.01986  -0.01938  -0.02887   0.00000   0.02862
  93        4PY         0.03011   0.00837  -0.00411   0.00000  -0.04727
  94        4PZ         0.00000   0.00000   0.00000   0.03482   0.00000
  95        5S         -0.00421   0.15700   0.03168   0.00000  -0.06562
  96        5PX        -0.00236  -0.02161   0.00754   0.00000  -0.00468
  97        5PY         0.00926   0.02967   0.00268   0.00000  -0.00875
  98        5PZ         0.00000   0.00000   0.00000   0.00185   0.00000
  99        6D 0       -0.00028  -0.00293  -0.00266   0.00000   0.00278
 100        6D+1        0.00000   0.00000   0.00000  -0.00021   0.00000
 101        6D-1        0.00000   0.00000   0.00000   0.00174   0.00000
 102        6D+2       -0.00029  -0.00101   0.00328   0.00000  -0.00070
 103        6D-2       -0.00588  -0.00281  -0.00060   0.00000   0.00971
 104        7D 0       -0.00716  -0.00261  -0.00462   0.00000  -0.00180
 105        7D+1        0.00000   0.00000   0.00000  -0.00021   0.00000
 106        7D-1        0.00000   0.00000   0.00000   0.00545   0.00000
 107        7D+2       -0.00362  -0.00149   0.00933   0.00000  -0.00523
 108        7D-2       -0.00785  -0.00647  -0.00037   0.00000   0.00696
 109 5   H  1S          0.06031  -0.05643  -0.01918  -0.02798   0.04710
 110        2S          0.07997  -0.07158  -0.02330  -0.03470   0.07111
 111        3S          0.02311  -0.02969  -0.02513  -0.02557   0.06188
 112        4S          0.00591   0.00011  -0.01068  -0.00188   0.01975
 113        5PX        -0.00114   0.00103   0.00033   0.00076  -0.00080
 114        5PY         0.00028   0.00011   0.00000  -0.00007  -0.00073
 115        5PZ         0.00164  -0.00170  -0.00061  -0.00070   0.00152
 116        6PX        -0.00641   0.00323  -0.00115   0.00244  -0.00098
 117        6PY         0.00257  -0.00007  -0.00071  -0.00056  -0.00384
 118        6PZ         0.00837  -0.00630  -0.00217  -0.00025   0.00575
 119        7PX        -0.00496   0.00634   0.00456   0.00634  -0.00763
 120        7PY        -0.00103   0.00199  -0.00176  -0.00400  -0.00680
 121        7PZ         0.00923  -0.00871  -0.00466  -0.00619   0.01187
 122 6   H  1S          0.06031  -0.05643  -0.01918   0.02798   0.04710
 123        2S          0.07997  -0.07158  -0.02330   0.03470   0.07111
 124        3S          0.02311  -0.02969  -0.02513   0.02557   0.06188
 125        4S          0.00591   0.00011  -0.01068   0.00188   0.01975
 126        5PX        -0.00114   0.00103   0.00033  -0.00076  -0.00080
 127        5PY         0.00028   0.00011   0.00000   0.00007  -0.00073
 128        5PZ        -0.00164   0.00170   0.00061  -0.00070  -0.00152
 129        6PX        -0.00641   0.00323  -0.00115  -0.00244  -0.00098
 130        6PY         0.00257  -0.00007  -0.00071   0.00056  -0.00384
 131        6PZ        -0.00837   0.00630   0.00217  -0.00025  -0.00575
 132        7PX        -0.00496   0.00634   0.00456  -0.00634  -0.00763
 133        7PY        -0.00103   0.00199  -0.00176   0.00400  -0.00680
 134        7PZ        -0.00923   0.00871   0.00466  -0.00619  -0.01187
 135 7   F  1S          0.02299   0.02715   0.01333  -0.02447   0.00505
 136        2S          0.03763   0.04449   0.02186  -0.04013   0.00826
 137        2PX         0.03596   0.05165   0.00347  -0.13075  -0.01613
 138        2PY        -0.01827   0.01868  -0.05903   0.00330   0.07902
 139        2PZ         0.03258   0.09764   0.10064  -0.09944   0.06542
 140        3S         -0.11770  -0.14027  -0.06921   0.12681  -0.02553
 141        3PX         0.05156   0.07479   0.00491  -0.18901  -0.02335
 142        3PY        -0.02638   0.02690  -0.08511   0.00449   0.11359
 143        3PZ         0.04646   0.14115   0.14564  -0.14387   0.09426
 144        4S         -0.10801  -0.13198  -0.07319   0.13464  -0.03004
 145        4PX         0.03614   0.05508  -0.00101  -0.14348  -0.02182
 146        4PY        -0.02027   0.02247  -0.07013   0.00463   0.09458
 147        4PZ         0.03210   0.10661   0.10970  -0.10276   0.07522
 148        5S         -0.00828   0.00263  -0.01725   0.02237   0.01342
 149        5PX        -0.00592   0.00184  -0.00328  -0.00639   0.00801
 150        5PY         0.00670  -0.00243  -0.00096  -0.00138  -0.00443
 151        5PZ        -0.00245   0.00272   0.00565  -0.00679   0.00566
 152        6D 0        0.00030   0.00168   0.00201  -0.00086   0.00131
 153        6D+1        0.00111   0.00207   0.00107  -0.00328   0.00051
 154        6D-1       -0.00045   0.00037  -0.00104   0.00004   0.00118
 155        6D+2        0.00049   0.00062  -0.00000  -0.00150  -0.00012
 156        6D-2       -0.00041   0.00034  -0.00079   0.00004   0.00079
 157        7D 0        0.00056   0.00683   0.00799  -0.00076   0.00676
 158        7D+1        0.00454   0.00808   0.00321  -0.01124   0.00036
 159        7D-1       -0.00287   0.00224  -0.00659   0.00063   0.00739
 160        7D+2        0.00211   0.00211  -0.00192  -0.00656  -0.00176
 161        7D-2       -0.00244   0.00170  -0.00385   0.00059   0.00550
 162 8   F  1S          0.03213  -0.02054   0.00701   0.00000   0.01654
 163        2S          0.05255  -0.03365   0.01153   0.00000   0.02709
 164        2PX         0.02808  -0.05164  -0.00643   0.00000   0.12883
 165        2PY         0.05011  -0.04464   0.04725   0.00000   0.04385
 166        2PZ         0.00000   0.00000   0.00000   0.02869   0.00000
 167        3S         -0.16365   0.10548  -0.03706   0.00000  -0.08516
 168        3PX         0.03955  -0.07430  -0.00946   0.00000   0.18596
 169        3PY         0.07137  -0.06419   0.06680   0.00000   0.06432
 170        3PZ         0.00000   0.00000   0.00000   0.04126   0.00000
 171        4S         -0.15151   0.10538  -0.04046   0.00000  -0.08865
 172        4PX         0.02683  -0.05425  -0.00909   0.00000   0.14773
 173        4PY         0.04829  -0.04417   0.05462   0.00000   0.04414
 174        4PZ         0.00000   0.00000   0.00000   0.03488   0.00000
 175        5S         -0.01877   0.00883  -0.00280   0.00000  -0.00607
 176        5PX        -0.00146  -0.00019  -0.00186   0.00000   0.00064
 177        5PY        -0.00691  -0.00242   0.00436   0.00000   0.00312
 178        5PZ         0.00000   0.00000   0.00000  -0.00515   0.00000
 179        6D 0       -0.00078   0.00080  -0.00032   0.00000  -0.00124
 180        6D+1        0.00000   0.00000   0.00000   0.00037   0.00000
 181        6D-1        0.00000   0.00000   0.00000   0.00049   0.00000
 182        6D+2       -0.00062  -0.00002  -0.00072   0.00000   0.00082
 183        6D-2        0.00114  -0.00151   0.00044   0.00000   0.00246
 184        7D 0       -0.00255   0.00268  -0.00227   0.00000  -0.00425
 185        7D+1        0.00000   0.00000   0.00000   0.00247   0.00000
 186        7D-1        0.00000   0.00000   0.00000   0.00357   0.00000
 187        7D+2       -0.00279  -0.00091  -0.00498   0.00000   0.00724
 188        7D-2        0.00381  -0.00559   0.00012   0.00000   0.01120
                          16        17        18        19        20
                           O         O         O         O         O
     Eigenvalues --    -0.54067  -0.53700  -0.49147  -0.49137  -0.46749
   1 1   C  1S         -0.00100   0.00000  -0.00110   0.00000  -0.00311
   2        2S         -0.00159   0.00000  -0.00176   0.00000  -0.00538
   3        2PX         0.03181   0.00000  -0.02191   0.00000  -0.01531
   4        2PY         0.00952   0.00000  -0.01797   0.00000   0.00711
   5        2PZ         0.00000  -0.03074   0.00000  -0.03555   0.00000
   6        3S          0.00497   0.00000   0.00505   0.00000   0.02286
   7        3PX         0.04736   0.00000  -0.02247   0.00000  -0.01724
   8        3PY         0.01003   0.00000  -0.01995   0.00000   0.00309
   9        3PZ         0.00000  -0.04547   0.00000  -0.04050   0.00000
  10        4S          0.02669   0.00000   0.00501   0.00000  -0.03202
  11        4PX         0.00538   0.00000  -0.02348   0.00000  -0.02377
  12        4PY        -0.01719   0.00000  -0.01979   0.00000   0.00408
  13        4PZ         0.00000  -0.00005   0.00000  -0.03323   0.00000
  14        5S          0.06064   0.00000   0.03066   0.00000   0.13623
  15        5PX        -0.00121   0.00000   0.03609   0.00000   0.04424
  16        5PY        -0.02185   0.00000   0.01281   0.00000  -0.03788
  17        5PZ         0.00000  -0.01213   0.00000   0.03723   0.00000
  18        6D 0       -0.00290   0.00000   0.02022   0.00000   0.01128
  19        6D+1        0.00000   0.00773   0.00000   0.02023   0.00000
  20        6D-1        0.00000  -0.00996   0.00000   0.01428   0.00000
  21        6D+2       -0.00976   0.00000  -0.00872   0.00000   0.01135
  22        6D-2        0.00662   0.00000  -0.00864   0.00000   0.00520
  23        7D 0        0.00260   0.00000   0.04746   0.00000   0.02703
  24        7D+1        0.00000   0.01612   0.00000   0.03860   0.00000
  25        7D-1        0.00000  -0.02912   0.00000   0.04528   0.00000
  26        7D+2       -0.02150   0.00000  -0.03497   0.00000   0.02132
  27        7D-2        0.00642   0.00000  -0.01278   0.00000   0.00818
  28 2   F  1S         -0.00197  -0.00184   0.00091  -0.00131  -0.00120
  29        2S         -0.00319  -0.00295   0.00145  -0.00205  -0.00204
  30        2PX         0.01189  -0.02614   0.17652  -0.01684   0.07653
  31        2PY        -0.00967  -0.05596   0.01629   0.12399  -0.01555
  32        2PZ         0.04787   0.04330   0.06930   0.09743  -0.01090
  33        3S          0.00955   0.00823  -0.00417   0.00556   0.00701
  34        3PX         0.01674  -0.03867   0.25428  -0.02589   0.11053
  35        3PY        -0.01334  -0.08007   0.02303   0.17855  -0.02257
  36        3PZ         0.06988   0.06314   0.09859   0.14185  -0.01762
  37        4S          0.01132   0.01690  -0.01199   0.02004   0.00695
  38        4PX         0.01429  -0.02714   0.20996  -0.01476   0.09505
  39        4PY        -0.01336  -0.06584   0.02177   0.14578  -0.01788
  40        4PZ         0.05315   0.04570   0.08569   0.11230  -0.01002
  41        5S          0.00425   0.00017  -0.01272   0.03210  -0.01882
  42        5PX         0.00521  -0.00765   0.01887   0.00819   0.00190
  43        5PY         0.00045  -0.00455   0.00043   0.01923  -0.00187
  44        5PZ         0.00707   0.00323   0.01829  -0.00625   0.00658
  45        6D 0       -0.00089  -0.00047  -0.00132  -0.00094   0.00014
  46        6D+1        0.00027   0.00093  -0.00129   0.00110  -0.00073
  47        6D-1        0.00000   0.00050  -0.00012  -0.00113   0.00029
  48        6D+2        0.00006  -0.00026   0.00101  -0.00010   0.00052
  49        6D-2        0.00008  -0.00050  -0.00006   0.00104  -0.00016
  50        7D 0       -0.00380  -0.00227  -0.00680  -0.00623   0.00026
  51        7D+1        0.00067   0.00297  -0.00719   0.00591  -0.00515
  52        7D-1        0.00103   0.00231  -0.00097  -0.00518   0.00014
  53        7D+2       -0.00041  -0.00210   0.00584  -0.00110   0.00429
  54        7D-2       -0.00090  -0.00303   0.00049   0.00462  -0.00043
  55 3   F  1S          0.00246   0.00000  -0.00125   0.00000  -0.00016
  56        2S          0.00398   0.00000  -0.00196   0.00000  -0.00021
  57        2PX        -0.06330   0.00000  -0.04959   0.00000   0.17520
  58        2PY        -0.02430   0.00000   0.15133   0.00000  -0.12201
  59        2PZ         0.00000  -0.04586   0.00000   0.21621   0.00000
  60        3S         -0.01191   0.00000   0.00556   0.00000  -0.00063
  61        3PX        -0.09205   0.00000  -0.07005   0.00000   0.25114
  62        3PY        -0.03676   0.00000   0.21949   0.00000  -0.17535
  63        3PZ         0.00000  -0.06628   0.00000   0.31025   0.00000
  64        4S         -0.01359   0.00000   0.01854   0.00000   0.01833
  65        4PX        -0.07179   0.00000  -0.06094   0.00000   0.21610
  66        4PY        -0.02631   0.00000   0.17646   0.00000  -0.16218
  67        4PZ         0.00000  -0.05380   0.00000   0.26261   0.00000
  68        5S         -0.00649   0.00000   0.02820   0.00000   0.02243
  69        5PX        -0.00679   0.00000  -0.02341   0.00000   0.01935
  70        5PY         0.00299   0.00000   0.00637   0.00000  -0.02832
  71        5PZ         0.00000  -0.00775   0.00000   0.02858   0.00000
  72        6D 0       -0.00054   0.00000   0.00091   0.00000   0.00023
  73        6D+1        0.00000   0.00070   0.00000  -0.00128   0.00000
  74        6D-1        0.00000   0.00046   0.00000  -0.00164   0.00000
  75        6D+2        0.00007   0.00000   0.00171   0.00000  -0.00134
  76        6D-2        0.00110   0.00000  -0.00061   0.00000  -0.00044
  77        7D 0       -0.00150   0.00000   0.00496   0.00000   0.00041
  78        7D+1        0.00000   0.00225   0.00000  -0.00798   0.00000
  79        7D-1        0.00000   0.00241   0.00000  -0.00979   0.00000
  80        7D+2        0.00084   0.00000   0.00854   0.00000  -0.01351
  81        7D-2        0.00534   0.00000  -0.00453   0.00000  -0.00339
  82 4   C  1S          0.00994   0.00000  -0.00065   0.00000   0.02059
  83        2S          0.01500   0.00000  -0.00094   0.00000   0.03260
  84        2PX        -0.14531   0.00000   0.01186   0.00000  -0.00673
  85        2PY        -0.06247   0.00000   0.00642   0.00000  -0.06590
  86        2PZ         0.00000   0.16114   0.00000   0.02984   0.00000
  87        3S         -0.03022   0.00000   0.00200   0.00000  -0.09189
  88        3PX        -0.21023   0.00000   0.01664   0.00000  -0.00798
  89        3PY        -0.08717   0.00000   0.00901   0.00000  -0.09973
  90        3PZ         0.00000   0.23001   0.00000   0.03940   0.00000
  91        4S         -0.14212   0.00000  -0.02195   0.00000  -0.08802
  92        4PX        -0.07450   0.00000   0.00239   0.00000  -0.01230
  93        4PY        -0.01035   0.00000   0.00264   0.00000  -0.04233
  94        4PZ         0.00000   0.11739   0.00000   0.00762   0.00000
  95        5S         -0.11986   0.00000  -0.05952   0.00000  -0.13006
  96        5PX         0.01200   0.00000  -0.01937   0.00000   0.02383
  97        5PY        -0.00281   0.00000  -0.02211   0.00000  -0.04092
  98        5PZ         0.00000   0.06403   0.00000  -0.02272   0.00000
  99        6D 0       -0.01282   0.00000   0.00284   0.00000  -0.00397
 100        6D+1        0.00000   0.00488   0.00000   0.00344   0.00000
 101        6D-1        0.00000  -0.00692   0.00000  -0.00199   0.00000
 102        6D+2       -0.00254   0.00000   0.00116   0.00000  -0.01010
 103        6D-2        0.01353   0.00000  -0.00381   0.00000   0.00445
 104        7D 0       -0.01002   0.00000  -0.00150   0.00000  -0.00945
 105        7D+1        0.00000  -0.00510   0.00000  -0.01102   0.00000
 106        7D-1        0.00000  -0.01669   0.00000   0.00254   0.00000
 107        7D+2        0.00442   0.00000  -0.01013   0.00000  -0.01977
 108        7D-2        0.00994   0.00000   0.00319   0.00000   0.00460
 109 5   H  1S         -0.07502  -0.09569   0.00784  -0.02160  -0.02847
[...]
     16 -0.256706D-02  0.190437D-01 -0.655939D-02 -0.114592D-01  0.623890D-02
     17  0.362265D-02  0.228447D-02  0.475342D-03 -0.367673D-02  0.222869D-02
     18  0.121604D-02  0.142671D-01  0.362476D-02 -0.435716D-02  0.437285D-04
     19 -0.753152D-03  0.142671D-01  0.186465D-02  0.629701D-02  0.437286D-04
     20 -0.177395D-02  0.993687D-02 -0.183202D-01 -0.110784D-02  0.178876D-01
     21  0.168001D-02 -0.173884D-01 -0.174624D-01  0.230245D-02  0.154731D-01
     22  0.332706D-02 -0.372578D-02 -0.167258D-01 -0.338209D-02  0.166804D-01
     23 -0.421934D-02  0.136626D-01  0.172963D-01  0.567543D-02  0.120728D-02
     24 -0.765382D-03 -0.136626D-01  0.181541D-01  0.908572D-02 -0.120728D-02
     25  0.881669D-03  0.000000D+00  0.188907D-01  0.340118D-02  0.000000D+00
     26 -0.265794D-02  0.173884D-01 -0.518443D-03 -0.649318D-02 -0.154731D-01
     27  0.796022D-03 -0.993687D-02  0.339359D-03 -0.308289D-02 -0.178876D-01
     28  0.244307D-02  0.372578D-02  0.107597D-02 -0.876743D-02 -0.166804D-01
               11            12            13            14            15 
     11  0.176405D+00
     12 -0.894354D-01  0.117004D+00
     13  0.112210D-02 -0.828836D-01  0.176476D+00
     14 -0.956494D-02  0.393333D-02 -0.107906D-01  0.110388D+00
     15 -0.956494D-02 -0.347114D-02  0.238496D-01 -0.138189D-01  0.110388D+00
     16  0.296595D-01 -0.655939D-02 -0.114592D-01 -0.171712D-01 -0.171712D-01
     17  0.439752D-02  0.475342D-03 -0.367673D-02 -0.411568D-01 -0.411568D-01
     18 -0.722971D-02  0.186466D-02  0.629701D-02 -0.449423D-01  0.708752D-02
     19 -0.722971D-02  0.362476D-02 -0.435716D-02  0.708752D-02 -0.449423D-01
     20 -0.201024D-02 -0.339359D-03  0.308289D-02 -0.227779D-02 -0.204652D-02
     21 -0.820922D-02  0.518443D-03  0.649318D-02  0.593574D-02  0.616702D-02
     22 -0.510973D-02 -0.107597D-02  0.876743D-02 -0.402134D-02  0.791056D-02
     23  0.309949D-02 -0.181541D-01 -0.908572D-02  0.188149D-02 -0.100950D-01
     24 -0.309949D-02 -0.172963D-01 -0.567543D-02  0.100950D-01 -0.188149D-02
     25  0.000000D+00 -0.188907D-01 -0.340118D-02  0.137941D-03 -0.137941D-03
     26  0.820922D-02  0.174624D-01 -0.230245D-02 -0.616702D-02 -0.593574D-02
     27  0.201024D-02  0.183202D-01  0.110784D-02  0.204652D-02  0.227779D-02
     28  0.510973D-02  0.167258D-01  0.338209D-02 -0.791056D-02  0.402134D-02
               16            17            18            19            20 
     16  0.166300D+00
     17  0.417565D-02  0.506179D-01
     18 -0.664745D-01  0.134880D-01  0.710405D-01
     19 -0.664745D-01  0.134880D-01  0.181302D-01  0.710405D-01
     20  0.362952D-02 -0.715662D-02  0.100126D-01 -0.212041D-02  0.247305D-01
     21 -0.120264D-01  0.475666D-02  0.357245D-02 -0.856058D-02  0.134066D-01
     22 -0.419842D-02 -0.119998D-02 -0.969931D-02  0.111513D-01  0.117520D-01
     23  0.782795D-02 -0.595664D-02  0.708771D-02 -0.647543D-03 -0.475937D-04
     24 -0.782795D-02  0.595664D-02  0.647543D-03 -0.708771D-02 -0.113716D-01
     25  0.000000D+00  0.000000D+00 -0.126242D-01  0.126242D-01 -0.130262D-01
     26  0.120264D-01 -0.475666D-02  0.856058D-02 -0.357245D-02  0.118853D-03
     27 -0.362952D-02  0.715662D-02  0.212041D-02 -0.100126D-01 -0.112051D-01
     28  0.419842D-02  0.119998D-02 -0.111513D-01  0.969931D-02 -0.128597D-01
               21            22            23            24            25 
     21  0.265062D-01
     22  0.126398D-01  0.284944D-01
     23 -0.122594D-01 -0.144810D-01  0.269949D-01
     24  0.840249D-03 -0.135931D-01  0.147830D-01  0.269949D-01
     25 -0.130262D-01  0.226144D-02  0.125615D-01  0.125615D-01  0.278491D-01
     26 -0.129808D-01 -0.137475D-01  0.840249D-03 -0.122594D-01 -0.130262D-01
     27  0.118853D-03 -0.128597D-01 -0.113716D-01 -0.475938D-04 -0.130262D-01
     28 -0.137475D-01  0.299487D-02 -0.135931D-01 -0.144810D-01  0.226144D-02
               26            27            28 
     26  0.265062D-01
     27  0.134066D-01  0.247305D-01
     28  0.126398D-01  0.117520D-01  0.284944D-01
 Leave Link  716 at Fri Sep  6 11:32:25 2024, MaxMem=  1610612736 cpu:               0.2 elap:               0.0
 (Enter /Users/asuyarger/Applications/G16/g16/l103.exe)

 GradGradGradGradGradGradGradGradGradGradGradGradGradGradGradGradGradGrad
 Berny optimization.
 Red2BG is reusing G-inverse.
 Internal  Forces:  Max     0.000006740 RMS     0.000002003
 Search for a local minimum.
 Step number   1 out of a maximum of    2
 All quantities printed in internal units (Hartrees-Bohrs-Radians)
 Second derivative matrix not updated -- analytic derivatives used.
 ITU=  0
     Eigenvalues ---    0.00273   0.04922   0.07034   0.09019   0.09583
     Eigenvalues ---    0.13950   0.14395   0.19352   0.22628   0.24304
     Eigenvalues ---    0.26253   0.33541   0.33877   0.34879   0.35234
     Eigenvalues ---    0.36493   0.40168   0.51289
 Angle between quadratic step and forces=  39.79 degrees.
 Linear search not attempted -- first point.
 Iteration  1 RMS(Cart)=  0.00002315 RMS(Int)=  0.00000000
 Iteration  2 RMS(Cart)=  0.00000000 RMS(Int)=  0.00000000
 ITry= 1 IFail=0 DXMaxC= 5.77D-05 DCOld= 1.00D+10 DXMaxT= 3.00D-01 DXLimC= 3.00D+00 Rises=F
 ClnCor:  largest displacement from symmetrization is 1.95D-11 for atom     6.
 Variable       Old X    -DE/DX   Delta X   Delta X   Delta X     New X
                                 (Linear)    (Quad)   (Total)
    R1        2.53561   0.00000   0.00000  -0.00000  -0.00000   2.53561
    R2        2.55136   0.00000   0.00000   0.00001   0.00001   2.55137
    R3        2.86815  -0.00000   0.00000  -0.00001  -0.00001   2.86814
    R4        2.53561   0.00000   0.00000  -0.00000  -0.00000   2.53561
    R5        2.05746   0.00000   0.00000   0.00000   0.00000   2.05747
    R6        2.05746   0.00000   0.00000   0.00000   0.00000   2.05747
    R7        2.60573  -0.00001   0.00000  -0.00002  -0.00002   2.60570
    A1        1.88501   0.00000   0.00000  -0.00000  -0.00000   1.88501
    A2        1.95501   0.00000   0.00000   0.00002   0.00002   1.95502
    A3        1.88211  -0.00000   0.00000   0.00000   0.00000   1.88211
    A4        1.89923  -0.00000   0.00000  -0.00003  -0.00003   1.89919
    A5        1.88501   0.00000   0.00000  -0.00000  -0.00000   1.88501
    A6        1.95501   0.00000   0.00000   0.00002   0.00002   1.95502
    A7        1.90087   0.00000   0.00000  -0.00001  -0.00001   1.90087
    A8        1.90087   0.00000   0.00000  -0.00001  -0.00001   1.90087
    A9        1.91324   0.00000   0.00000   0.00003   0.00003   1.91327
   A10        1.93272  -0.00000   0.00000  -0.00002  -0.00002   1.93269
   A11        1.90802  -0.00000   0.00000   0.00000   0.00000   1.90803
   A12        1.90802  -0.00000   0.00000   0.00000   0.00000   1.90803
    D1       -3.13761   0.00000   0.00000   0.00003   0.00003  -3.13757
    D2       -1.02812   0.00000   0.00000  -0.00000  -0.00000  -1.02812
    D3        1.05873   0.00000   0.00000   0.00001   0.00001   1.05875
    D4       -1.05475   0.00000   0.00000   0.00002   0.00002  -1.05473
    D5        1.05475  -0.00000   0.00000  -0.00002  -0.00002   1.05473
    D6        3.14159  -0.00000   0.00000  -0.00000   0.00000   3.14159
    D7        1.02812  -0.00000   0.00000   0.00000   0.00000   1.02812
    D8        3.13761  -0.00000   0.00000  -0.00003  -0.00003   3.13757
    D9       -1.05873  -0.00000   0.00000  -0.00001  -0.00001  -1.05875
         Item               Value     Threshold  Converged?
 Maximum Force            0.000007     0.000015     YES
 RMS     Force            0.000002     0.000010     YES
 Maximum Displacement     0.000058     0.000060     YES
 RMS     Displacement     0.000023     0.000040     YES
 Predicted change in Energy=-3.390419D-10
 Optimization completed.
    -- Stationary point found.
                           ----------------------------
                           !   Optimized Parameters   !
                           ! (Angstroms and Degrees)  !
 --------------------------                            --------------------------
 ! Name  Definition              Value          Derivative Info.                !
 --------------------------------------------------------------------------------
 ! R1    R(1,2)                  1.3418         -DE/DX =    0.0                 !
 ! R2    R(1,3)                  1.3501         -DE/DX =    0.0                 !
 ! R3    R(1,4)                  1.5178         -DE/DX =    0.0                 !
 ! R4    R(1,7)                  1.3418         -DE/DX =    0.0                 !
 ! R5    R(4,5)                  1.0888         -DE/DX =    0.0                 !
 ! R6    R(4,6)                  1.0888         -DE/DX =    0.0                 !
 ! R7    R(4,8)                  1.3789         -DE/DX =    0.0                 !
 ! A1    A(2,1,3)              108.0034         -DE/DX =    0.0                 !
 ! A2    A(2,1,4)              112.0137         -DE/DX =    0.0                 !
 ! A3    A(2,1,7)              107.8371         -DE/DX =    0.0                 !
 ! A4    A(3,1,4)              108.8176         -DE/DX =    0.0                 !
 ! A5    A(3,1,7)              108.0034         -DE/DX =    0.0                 !
 ! A6    A(4,1,7)              112.0137         -DE/DX =    0.0                 !
 ! A7    A(1,4,5)              108.912          -DE/DX =    0.0                 !
 ! A8    A(1,4,6)              108.912          -DE/DX =    0.0                 !
 ! A9    A(1,4,8)              109.6208         -DE/DX =    0.0                 !
 ! A10   A(5,4,6)              110.7365         -DE/DX =    0.0                 !
 ! A11   A(5,4,8)              109.3216         -DE/DX =    0.0                 !
 ! A12   A(6,4,8)              109.3216         -DE/DX =    0.0                 !
 ! D1    D(2,1,4,5)           -179.7716         -DE/DX =    0.0                 !
 ! D2    D(2,1,4,6)            -58.9067         -DE/DX =    0.0                 !
 ! D3    D(2,1,4,8)             60.6609         -DE/DX =    0.0                 !
 ! D4    D(3,1,4,5)            -60.4324         -DE/DX =    0.0                 !
 ! D5    D(3,1,4,6)             60.4324         -DE/DX =    0.0                 !
 ! D6    D(3,1,4,8)            180.0            -DE/DX =    0.0                 !
 ! D7    D(7,1,4,5)             58.9067         -DE/DX =    0.0                 !
 ! D8    D(7,1,4,6)            179.7716         -DE/DX =    0.0                 !
 ! D9    D(7,1,4,8)            -60.6609         -DE/DX =    0.0                 !
 --------------------------------------------------------------------------------
 GradGradGradGradGradGradGradGradGradGradGradGradGradGradGradGradGradGrad

 Leave Link  103 at Fri Sep  6 11:32:25 2024, MaxMem=  1610612736 cpu:               0.1 elap:               0.0
 (Enter /Users/asuyarger/Applications/G16/g16/l9999.exe)

 ----------------------------------------------------------------------

 Electric dipole moment (input orientation):
 (Debye = 10**-18 statcoulomb cm , SI units = C m)
                  (au)            (Debye)         (10**-30 SI)
   Tot        0.834899D+00      0.212210D+01      0.707857D+01
   x         -0.395965D+00     -0.100644D+01     -0.335713D+01
   y          0.367476D+00      0.934031D+00      0.311559D+01
   z         -0.636577D+00     -0.161802D+01     -0.539713D+01

 Dipole polarizability, Alpha (input orientation).
 (esu units = cm**3 , SI units = C**2 m**2 J**-1)
 Alpha(0;0):
               (au)            (10**-24 esu)      (10**-40 SI)
   iso        0.294474D+02      0.436365D+01      0.485522D+01
   aniso      0.208920D+01      0.309587D+00      0.344462D+00
   xx         0.306636D+02      0.454388D+01      0.505575D+01
   yx         0.171583D+00      0.254260D-01      0.282902D-01
   yy         0.286006D+02      0.423817D+01      0.471560D+01
   zx        -0.296891D+00     -0.439948D-01     -0.489508D-01
   zy        -0.413376D+00     -0.612559D-01     -0.681564D-01
   zz         0.290779D+02      0.430890D+01      0.479430D+01

 ----------------------------------------------------------------------

 Dipole orientation:
     6         -1.30867010         -1.15139594          1.51296465
     9         -1.49861630         -3.19364895          0.02217124
     9         -3.53407811         -0.84908315          2.72358232
     6          0.77474927         -1.43442015          3.46374925
     1          0.83973014          0.26522818          4.62139060
     1          0.38396173         -3.08980895          4.62139060
     9         -0.94692290          0.86751858          0.02217124
     9          3.06452962         -1.74547767          2.25960845

 Electric dipole moment (dipole orientation):
 (Debye = 10**-18 statcoulomb cm , SI units = C m)
                  (au)            (Debye)         (10**-30 SI)
   Tot        0.834899D+00      0.212210D+01      0.707857D+01
   x          0.000000D+00      0.000000D+00      0.000000D+00
   y          0.000000D+00      0.000000D+00      0.000000D+00
   z          0.834899D+00      0.212210D+01      0.707857D+01

 Dipole polarizability, Alpha (dipole orientation).
 (esu units = cm**3 , SI units = C**2 m**2 J**-1)
 Alpha(0;0):
               (au)            (10**-24 esu)      (10**-40 SI)
   iso        0.294474D+02      0.436365D+01      0.485522D+01
   aniso      0.208920D+01      0.309587D+00      0.344462D+00
   xx         0.306056D+02      0.453528D+01      0.504618D+01
   yx        -0.304795D+00     -0.451660D-01     -0.502540D-01
   yy         0.284033D+02      0.420894D+01      0.468307D+01
   zx        -0.370405D+00     -0.548884D-01     -0.610716D-01
   zy         0.503181D-01      0.745637D-02      0.829634D-02
   zz         0.293332D+02      0.434673D+01      0.483639D+01

 ----------------------------------------------------------------------
 1\1\GINC-JEFFSMACSTUDIO\Freq\RB3LYP\6-311++G(2d,3p)\C2H2F4\ROOT\06-Sep
 -2024\0\\#P Geom=AllCheck Guess=TCheck SCRF=Check GenChk RB3LYP/6-311+
 +G(2d,3p) Freq\\R134a DFT B3LPY 6-311++g(2d,3p) Opt Freq - Full - NBO\
 \0,1\C,-0.9116834439,0.8126891936,-0.0138308969\F,-0.4972254479,1.4154
 807157,1.1110095549\F,-2.2618040423,0.8127876735,-0.0141868094\C,-0.42
 17396445,1.5309417331,-1.2578834903\H,-0.7888025301,1.0040926269,-2.13
 71448384\H,-0.7889254991,2.5557861168,-1.241324559\F,-0.4970765978,-0.
 4627957278,0.0266471216\F,0.9570205463,1.5405052468,-1.2742596514\\Ver
 sion=EM64M-G16RevA.03\State=1-A'\HF=-476.9521445\RMSD=2.458e-09\RMSF=2
 .554e-06\ZeroPoint=0.0449153\Thermal=0.0504303\Dipole=-0.3959645,0.367
 4759,-0.6365771\DipoleDeriv=1.6128251,-0.0429434,0.0743743,-0.0683617,
 1.6197007,0.1153862,0.1184024,0.1153897,1.4864648,-0.3446999,-0.090696
 7,-0.1253719,-0.097318,-0.4286067,-0.1800399,-0.1810685,-0.2563106,-0.
 8306947,-0.9787923,0.0107042,-0.0186352,-0.047726,-0.3066415,0.0223602
 ,0.0825746,0.0223682,-0.3324625,0.9072381,0.0332485,-0.0575094,0.01077
 41,0.2833599,0.0467659,-0.0185805,0.046769,0.2293445,0.0129531,-0.0178
 983,0.0093879,-0.0456585,0.0437275,-0.057661,-0.0487909,-0.042908,-0.0
 130183,0.0129428,0.0008271,0.0201893,0.0650902,-0.0423717,0.0068184,0.
 0151396,-0.0079397,0.0730912,-0.3447433,0.1539856,0.0158487,0.2055351,
 -0.9190689,0.0269304,-0.006277,0.1031949,-0.340189,-0.8777236,-0.04722
 69,0.0817163,-0.0223352,-0.2500992,0.0194399,0.0386003,0.0194365,-0.27
 2536\Polar=30.6636486,0.1715831,28.6005762,-0.2968914,-0.4133755,29.07
 79005\Quadrupole=-2.3362573,0.8962829,1.4399743,-0.7422106,1.2852123,-
 0.4705939\PG=CS [SG(C2F2),X(H2F2)]\NImag=0\\0.49563221,0.01468531,0.52
 578285,-0.02543783,-0.04346554,0.57597351,-0.08246016,-0.01708730,-0.0
 4056320,0.10399431,-0.01521215,-0.09569320,-0.05760995,0.04082976,0.13
 705913,-0.03205626,-0.04717022,-0.23064266,0.08334130,0.11675977,0.286
 34823,-0.23727930,-0.02022722,0.03501379,-0.04442425,-0.02082131,-0.03
 807200,0.36699736,-0.01402087,-0.07510359,0.00623285,-0.02391279,0.005
 61973,-0.01004149,0.00064330,0.07392271,0.02426347,0.00623200,-0.08229
 556,-0.05093399,-0.01241850,-0.00545053,-0.00107428,0.00273090,0.07076
 879,-0.06090845,-0.02416767,0.04186355,0.00372653,-0.00067189,-0.02323
 015,-0.03745761,-0.01490421,0.02581027,0.49285968,-0.01534843,-0.10234
 914,0.05192192,-0.00052951,0.00725465,-0.02583458,0.00202669,0.0065470
 9,-0.00021652,-0.01838156,0.61329066,0.02658732,0.05192071,-0.16230320
 ,0.00167410,0.00457944,-0.04572729,-0.00351655,-0.00021885,0.00680052,
 0.03181881,0.05365580,0.55133313,0.00546613,0.00656558,0.00447951,-0.0
 0007333,-0.00101976,0.00414688,0.00038781,0.00028850,-0.00011185,-0.06
 865194,-0.03674081,-0.05957100,0.09057145,0.00434300,0.00753162,0.0133
 0207,-0.00032975,0.00037994,0.00560689,0.00104074,-0.00014896,-0.00085
 275,-0.03985386,-0.12091388,-0.10911427,0.04565159,0.11828048,-0.00994
 637,-0.01819561,-0.02220427,0.00111991,0.00206983,-0.00603546,0.000994
 65,0.00129773,0.00217370,-0.06509500,-0.10363485,-0.23192821,0.0730467
 5,0.11431857,0.24417678,0.00546705,-0.00716155,-0.00344514,0.00002794,
 0.00044779,-0.00004501,0.00038803,-0.00004743,-0.00030578,-0.06866961,
 0.06998810,0.00202902,0.00604438,-0.00805188,0.00094254,0.09059233,0.0
 0644482,-0.01688821,-0.00409524,-0.00036297,0.00198573,-0.00023887,-0.
 00138196,0.00178546,0.00018054,0.07632817,-0.29628081,-0.00235980,0.00
 321199,-0.01101500,0.00098317,-0.08611275,0.31168528,-0.00873768,0.027
 40088,0.00221464,0.00038974,-0.00173533,0.00153401,-0.00040367,-0.0019
 6986,0.00023906,0.00196334,-0.00783966,-0.05654362,0.00744742,-0.02483
 910,0.00276054,-0.00300545,0.00262561,0.05075111,-0.08246898,0.0436892
 9,-0.00549003,0.01420708,-0.00427816,0.00204770,-0.04443567,0.05606262
 ,-0.00476459,0.00372490,-0.00118185,0.00129543,0.00002797,-0.00015604,
 0.00050898,-0.00007313,-0.00080503,0.00084510,0.10401546,0.03538389,-0
 .24226391,0.03746913,0.00037717,-0.05735229,-0.03957157,0.04337810,-0.
 01239668,0.00037069,0.02045854,-0.04168155,0.00242480,-0.00018506,0.00
 079202,0.00045042,-0.00308160,-0.00110750,0.00646538,-0.09261908,0.350
 12026,-0.00285884,0.02703029,-0.08406313,0.00473634,-0.05250557,-0.004
 18493,-0.00101000,-0.00200500,0.01257731,-0.01103806,0.03283587,0.0032
 1052,-0.00041036,-0.00104614,0.00272769,0.00295668,0.00292873,-0.00454
 823,0.00631840,-0.00628328,0.07326595,-0.04344850,0.00370356,-0.006420
 64,0.00500189,0.00072572,0.00386753,-0.00417637,-0.00410912,0.00711676
 ,-0.26462349,0.00016736,-0.00031711,-0.03377246,-0.00264380,-0.0015714
 6,-0.03377698,0.00267772,0.00150119,0.00500238,-0.00371196,0.00130584,
 0.36979353,-0.01627558,-0.00101641,-0.00375525,0.00101539,0.00074631,0
 .00049007,-0.00465833,-0.00022575,0.00397364,0.00119249,-0.06586701,-0
 .00088784,-0.01777203,0.00509378,0.00271074,0.03401930,0.00983506,-0.0
 0010793,-0.00071175,0.00388964,-0.00095490,0.00319052,0.04754439,0.028
 18619,-0.00375251,0.00332067,0.00023581,0.00086030,0.00415863,0.008068
 06,0.00397372,-0.00481329,-0.00209277,-0.00088798,-0.06484185,-0.02902
 734,0.00262473,0.00832924,0.00087314,-0.00002414,0.00359249,-0.0007609
 9,-0.00132559,0.00101481,-0.00548210,-0.00146853,0.04923929\\-0.000005
 20,-0.00000069,0.00000120,0.00000183,-0.00000019,-0.00000144,0.0000018
 4,-0.00000142,0.00000246,-0.00000602,0.00000250,-0.00000433,-0.0000002
 9,-0.00000111,0.00000066,-0.00000029,-0.00000001,0.00000129,0.00000183
 ,0.00000134,-0.00000056,0.00000630,-0.00000042,0.00000073\\\@


 MATERIAL COPIED FROM ONE SCHOLARLY BOOK WITHOUT CREDIT COMPRISES PLAGIARISM.
 MATERIAL COPIED FROM TWO SCHOLARLY BOOKS COMPRISES AN ESSAY.
 MATERIAL COPIED FROM THREE SCHOLARLY BOOKS COMPRISES A DISSERTATION.
 MATERIAL COPIED FROM FOUR SCHOLARLY BOOKS COMPRISES A FIFTH SCHOLARLY BOOK.

                               -- C&EN, 25 FEB 1980
 Job cpu time:       0 days  0 hours  0 minutes 21.7 seconds.
 Elapsed time:       0 days  0 hours  0 minutes 20.8 seconds.
 File lengths (MBytes):  RWF=     32 Int=      0 D2E=      0 Chk=      4 Scr=      1
 Normal termination of Gaussian 16 at Fri Sep  6 11:32:25 2024.
