 Entering Gaussian System, Link 0=g16
 Input=/Users/asuyarger/Downloads/r134a_HF_6311pp2d3p_Opt_Freq_Full_NBO.gjf
 Output=/Users/asuyarger/Downloads/r134a_HF_6311pp2d3p_Opt_Freq_Full_NBO.log
 Initial command:
 /Users/asuyarger/Applications/G16/g16/l1.exe "/Users/asuyarger/Applications/G16/scratch/Gau-89733.inp" -scrdir="/Users/asuyarger/Applications/G16/scratch/"
 Entering Link 1 = /Users/asuyarger/Applications/G16/g16/l1.exe PID=     89734.
  
 Copyright (c) 1988,1990,1992,1993,1995,1998,2003,2009,2016,
            Gaussian, Inc.  All Rights Reserved.
  
 This is part of the Gaussian(R) 16 program.  It is based on
 the Gaussian(R) 09 system (copyright 2009, Gaussian, Inc.),
 the Gaussian(R) 03 system (copyright 2003, Gaussian, Inc.),
 the Gaussian(R) 98 system (copyright 1998, Gaussian, Inc.),
 the Gaussian(R) 94 system (copyright 1995, Gaussian, Inc.),
 the Gaussian 92(TM) system (copyright 1992, Gaussian, Inc.),
 the Gaussian 90(TM) system (copyright 1990, Gaussian, Inc.),
 the Gaussian 88(TM) system (copyright 1988, Gaussian, Inc.),
 the Gaussian 86(TM) system (copyright 1986, Carnegie Mellon
 University), and the Gaussian 82(TM) system (copyright 1983,
 Carnegie Mellon University). Gaussian is a federally registered
 trademark of Gaussian, Inc.
  
 This software contains proprietary and confidential information,
 including trade secrets, belonging to Gaussian, Inc.
  
 This software is provided under written license and may be
 used, copied, transmitted, or stored only in accord with that
 written license.
  
 The following legend is applicable only to US Government
 contracts under FAR:
  
                    RESTRICTED RIGHTS LEGEND
  
 Use, reproduction and disclosure by the US Government is
 subject to restrictions as set forth in subparagraphs (a)
 and (c) of the Commercial Computer Software - Restricted
 Rights clause in FAR 52.227-19.
  
 Gaussian, Inc.
 340 Quinnipiac St., Bldg. 40, Wallingford CT 06492
  
  
 ---------------------------------------------------------------
 Warning -- This program may not be used in any manner that
 competes with the business of Gaussian, Inc. or will provide
 assistance to any competitor of Gaussian, Inc.  The licensee
 of this program is prohibited from giving any competitor of
 Gaussian, Inc. access to this program.  By using this program,
 the user acknowledges that Gaussian, Inc. is engaged in the
 business of creating and licensing software in the field of
 computational chemistry and represents and warrants to the
 licensee that it is not a competitor of Gaussian, Inc. and that
 it will not use this program in any manner prohibited above.
 ---------------------------------------------------------------
  

 Cite this work as:
 Gaussian 16, Revision A.03,
 M. J. Frisch, G. W. Trucks, H. B. Schlegel, G. E. Scuseria, 
 M. A. Robb, J. R. Cheeseman, G. Scalmani, V. Barone, 
 G. A. Petersson, H. Nakatsuji, X. Li, M. Caricato, A. V. Marenich, 
 J. Bloino, B. G. Janesko, R. Gomperts, B. Mennucci, H. P. Hratchian, 
 J. V. Ortiz, A. F. Izmaylov, J. L. Sonnenberg, D. Williams-Young, 
 F. Ding, F. Lipparini, F. Egidi, J. Goings, B. Peng, A. Petrone, 
 T. Henderson, D. Ranasinghe, V. G. Zakrzewski, J. Gao, N. Rega, 
 G. Zheng, W. Liang, M. Hada, M. Ehara, K. Toyota, R. Fukuda, 
 J. Hasegawa, M. Ishida, T. Nakajima, Y. Honda, O. Kitao, H. Nakai, 
 T. Vreven, K. Throssell, J. A. Montgomery, Jr., J. E. Peralta, 
 F. Ogliaro, M. J. Bearpark, J. J. Heyd, E. N. Brothers, K. N. Kudin, 
 V. N. Staroverov, T. A. Keith, R. Kobayashi, J. Normand, 
 K. Raghavachari, A. P. Rendell, J. C. Burant, S. S. Iyengar, 
 J. Tomasi, M. Cossi, J. M. Millam, M. Klene, C. Adamo, R. Cammi, 
 J. W. Ochterski, R. L. Martin, K. Morokuma, O. Farkas, 
 J. B. Foresman, and D. J. Fox, Gaussian, Inc., Wallingford CT, 2016.
 
 ******************************************
 Gaussian 16:  EM64M-G16RevA.03 25-Dec-2016
                 6-Sep-2024 
 ******************************************
 %nprocshared=12
 Will use up to   12 processors via shared memory.
 %mem=12GB
 %chk=r134a_HF_6311pp2d3p_Opt_Freq_Full_NBO.chk
 ----------------------------------------------------------------------
 #p opt=tight freq hf/6-311++g(2d,3p) guess=save pop=(hirshfeld,full,nb
 o) geom=connectivity polar
 ----------------------------------------------------------------------
 1/7=10,18=20,19=15,38=1,57=2/1,3;
 2/9=110,12=2,17=6,18=5,40=1/2;
 3/5=4,6=6,7=1512,11=9,25=1,30=1,71=1/1,2,3;
 4//1;
 5/5=2,38=5,98=1/2;
 6/7=3,28=1,40=1,79=1/1,7;
 7//1,2,3,16;
 1/7=10,18=20,19=15/3(2);
 2/9=110/2;
 99//99;
 2/9=110/2;
 3/5=4,6=6,7=1512,11=9,25=1,30=1,71=1/1,2,3;
 4/5=5,16=3,69=1/1;
 5/5=2,38=5,98=1/2;
 7//1,2,3,16;
 1/7=10,18=20,19=15/3(-5);
 2/9=110/2;
 6/7=3,19=2,28=1,40=1,79=1/1,7;
 99/9=1/99;
 Leave Link    1 at Fri Sep  6 11:29:58 2024, MaxMem=  1610612736 cpu:               0.2 elap:               0.0
 (Enter /Users/asuyarger/Applications/G16/g16/l101.exe)
 ----------------------------------------------
 R134a HF 6-311++g(2d,3p) Opt Freq - Full - NBO
 ----------------------------------------------
 Symbolic Z-matrix:
 Charge =  0 Multiplicity = 1
 C                    -0.93128   0.8047    0. 
 F                    -0.48136   1.44115   1.10227 
 F                    -2.28128   0.80463  -0.00005 
 C                    -0.41794   1.53066  -1.2574 
 H                    -0.77455   1.02622  -2.13105 
 H                    -0.77467   2.53945  -1.25744 
 F                    -0.48121  -0.46806   0.00005 
 F                     0.93206   1.53074  -1.25735 
 
 ITRead=  0  0  0  0  0  0  0  0
 MicOpt= -1 -1 -1 -1 -1 -1 -1 -1
 NAtoms=      8 NQM=        8 NQMF=       0 NMMI=      0 NMMIF=      0
                NMic=       0 NMicF=      0.
                    Isotopes and Nuclear Properties:
 (Nuclear quadrupole moments (NQMom) in fm**2, nuclear magnetic moments (NMagM)
  in nuclear magnetons)

  Atom         1           2           3           4           5           6           7           8
 IAtWgt=          12          19          19          12           1           1          19          19
 AtmWgt=  12.0000000  18.9984033  18.9984033  12.0000000   1.0078250   1.0078250  18.9984033  18.9984033
 NucSpn=           0           1           1           0           1           1           1           1
 AtZEff=  -0.0000000  -0.0000000  -0.0000000  -0.0000000  -0.0000000  -0.0000000  -0.0000000  -0.0000000
 NQMom=    0.0000000   0.0000000   0.0000000   0.0000000   0.0000000   0.0000000   0.0000000   0.0000000
 NMagM=    0.0000000   2.6288670   2.6288670   0.0000000   2.7928460   2.7928460   2.6288670   2.6288670
 AtZNuc=   6.0000000   9.0000000   9.0000000   6.0000000   1.0000000   1.0000000   9.0000000   9.0000000
 Leave Link  101 at Fri Sep  6 11:29:58 2024, MaxMem=  1610612736 cpu:               2.4 elap:               0.2
 (Enter /Users/asuyarger/Applications/G16/g16/l103.exe)

 GradGradGradGradGradGradGradGradGradGradGradGradGradGradGradGradGradGrad
 Berny optimization.
 Initialization pass.
                           ----------------------------
                           !    Initial Parameters    !
                           ! (Angstroms and Degrees)  !
 --------------------------                            --------------------------
 ! Name  Definition              Value          Derivative Info.                !
 --------------------------------------------------------------------------------
 ! R1    R(1,2)                  1.35           estimate D2E/DX2                !
 ! R2    R(1,3)                  1.35           estimate D2E/DX2                !
 ! R3    R(1,4)                  1.54           estimate D2E/DX2                !
 ! R4    R(1,7)                  1.35           estimate D2E/DX2                !
 ! R5    R(4,5)                  1.07           estimate D2E/DX2                !
 ! R6    R(4,6)                  1.07           estimate D2E/DX2                !
 ! R7    R(4,8)                  1.35           estimate D2E/DX2                !
 ! A1    A(2,1,3)              109.4712         estimate D2E/DX2                !
 ! A2    A(2,1,4)              109.4712         estimate D2E/DX2                !
 ! A3    A(2,1,7)              109.4712         estimate D2E/DX2                !
 ! A4    A(3,1,4)              109.4712         estimate D2E/DX2                !
 ! A5    A(3,1,7)              109.4712         estimate D2E/DX2                !
 ! A6    A(4,1,7)              109.4712         estimate D2E/DX2                !
 ! A7    A(1,4,5)              109.4712         estimate D2E/DX2                !
 ! A8    A(1,4,6)              109.4712         estimate D2E/DX2                !
 ! A9    A(1,4,8)              109.4712         estimate D2E/DX2                !
 ! A10   A(5,4,6)              109.4712         estimate D2E/DX2                !
 ! A11   A(5,4,8)              109.4712         estimate D2E/DX2                !
 ! A12   A(6,4,8)              109.4712         estimate D2E/DX2                !
 ! D1    D(2,1,4,5)            180.0            estimate D2E/DX2                !
 ! D2    D(2,1,4,6)            -60.0            estimate D2E/DX2                !
 ! D3    D(2,1,4,8)             60.0            estimate D2E/DX2                !
 ! D4    D(3,1,4,5)            -60.0            estimate D2E/DX2                !
 ! D5    D(3,1,4,6)             60.0            estimate D2E/DX2                !
 ! D6    D(3,1,4,8)            180.0            estimate D2E/DX2                !
 ! D7    D(7,1,4,5)             60.0            estimate D2E/DX2                !
 ! D8    D(7,1,4,6)            180.0            estimate D2E/DX2                !
 ! D9    D(7,1,4,8)            -60.0            estimate D2E/DX2                !
 --------------------------------------------------------------------------------
 Trust Radius=3.00D-01 FncErr=1.00D-07 GrdErr=1.00D-07 EigMax=2.50D+02 EigMin=1.00D-04
 Number of steps in this run=     38 maximum allowed number of steps=    100.
 GradGradGradGradGradGradGradGradGradGradGradGradGradGradGradGradGradGrad

 Leave Link  103 at Fri Sep  6 11:29:58 2024, MaxMem=  1610612736 cpu:               0.1 elap:               0.0
 (Enter /Users/asuyarger/Applications/G16/g16/l202.exe)
                          Input orientation:                          
 ---------------------------------------------------------------------
 Center     Atomic      Atomic             Coordinates (Angstroms)
 Number     Number       Type             X           Y           Z
 ---------------------------------------------------------------------
      1          6           0       -0.931284    0.804702    0.000001
      2          9           0       -0.481364    1.441151    1.102273
      3          9           0       -2.281284    0.804626   -0.000053
      4          6           0       -0.417942    1.530664   -1.257401
      5          1           0       -0.774545    1.026219   -2.131055
      6          1           0       -0.774665    2.539449   -1.257440
      7          9           0       -0.481212   -0.468064    0.000050
      8          9           0        0.932058    1.530740   -1.257348
 ---------------------------------------------------------------------
                    Distance matrix (angstroms):
                    1          2          3          4          5
     1  C    0.000000
     2  F    1.350000   0.000000
     3  F    1.350000   2.204541   0.000000
     4  C    1.540000   2.362224   2.362224   0.000000
     5  H    2.148263   3.273001   2.619262   1.070000   0.000000
     6  H    2.148263   2.619262   2.619262   1.070000   1.747303
     7  F    1.350000   2.204541   2.204541   2.362224   2.619262
     8  F    2.362224   2.752017   3.526131   1.350000   1.982524
                    6          7          8
     6  H    0.000000
     7  F    3.273001   0.000000
     8  F    1.982524   2.752017   0.000000
 Stoichiometry    C2H2F4
 Framework group  CS[SG(C2F2),X(H2F2)]
 Deg. of freedom    11
 Full point group                 CS      NOp   2
 Largest Abelian subgroup         CS      NOp   2
 Largest concise Abelian subgroup CS      NOp   2
                         Standard orientation:                         
 ---------------------------------------------------------------------
 Center     Atomic      Atomic             Coordinates (Angstroms)
 Number     Number       Type             X           Y           Z
 ---------------------------------------------------------------------
      1          6           0       -0.026516    0.429212    0.000000
      2          9           0       -0.805098    0.465407    1.102270
      3          9           0        0.803253    1.494099    0.000000
      4          6           0        0.803253   -0.868125   -0.000000
      5          1           0        1.420351   -0.896813   -0.873651
      6          1           0        1.420351   -0.896813    0.873651
      7          9           0       -0.805098    0.465407   -1.102270
      8          9           0       -0.026516   -1.933012   -0.000000
 ---------------------------------------------------------------------
 Rotational constants (GHZ):           5.2497613           2.7740143           2.7610136
 Leave Link  202 at Fri Sep  6 11:29:58 2024, MaxMem=  1610612736 cpu:               0.1 elap:               0.0
 (Enter /Users/asuyarger/Applications/G16/g16/l301.exe)
 Standard basis: 6-311++G(2d,3p) (5D, 7F)
 Ernie: Thresh=  0.10000D-02 Tol=  0.10000D-05 Strict=F.
 There are   126 symmetry adapted cartesian basis functions of A'  symmetry.
 There are    74 symmetry adapted cartesian basis functions of A"  symmetry.
 There are   116 symmetry adapted basis functions of A'  symmetry.
 There are    72 symmetry adapted basis functions of A"  symmetry.
   188 basis functions,   282 primitive gaussians,   200 cartesian basis functions
    25 alpha electrons       25 beta electrons
       nuclear repulsion energy       271.2438410240 Hartrees.
 IExCor=    0 DFT=F Ex=HF Corr=None ExCW=0 ScaHFX=  1.000000
 ScaDFX=  1.000000  1.000000  1.000000  1.000000 ScalE2=  1.000000  1.000000
 IRadAn=      5 IRanWt=     -1 IRanGd=            0 ICorTp=0 IEmpDi=  4
 NAtoms=    8 NActive=    8 NUniq=    6 SFac= 1.78D+00 NAtFMM=   60 NAOKFM=F Big=F
 Integral buffers will be    131072 words long.
 Raffenetti 1 integral format.
 Two-electron integral symmetry is turned on.
 Leave Link  301 at Fri Sep  6 11:29:58 2024, MaxMem=  1610612736 cpu:               0.2 elap:               0.0
 (Enter /Users/asuyarger/Applications/G16/g16/l302.exe)
 NPDir=0 NMtPBC=     1 NCelOv=     1 NCel=       1 NClECP=     1 NCelD=      1
         NCelK=      1 NCelE2=     1 NClLst=     1 CellRange=     0.0.
 One-electron integrals computed using PRISM.
 One-electron integral symmetry used in STVInt
 NBasis=   188 RedAO= T EigKep=  1.19D-04  NBF=   116    72
 NBsUse=   188 1.00D-06 EigRej= -1.00D+00 NBFU=   116    72
 Leave Link  302 at Fri Sep  6 11:29:59 2024, MaxMem=  1610612736 cpu:               1.0 elap:               0.1
 (Enter /Users/asuyarger/Applications/G16/g16/l303.exe)
 DipDrv:  MaxL=1.
 Leave Link  303 at Fri Sep  6 11:29:59 2024, MaxMem=  1610612736 cpu:               0.2 elap:               0.0
 (Enter /Users/asuyarger/Applications/G16/g16/l401.exe)
 ExpMin= 3.60D-02 ExpMax= 1.14D+04 ExpMxC= 1.72D+03 IAcc=3 IRadAn=         5 AccDes= 0.00D+00
 Harris functional with IExCor=  205 and IRadAn=       5 diagonalized for initial guess.
 HarFok:  IExCor=  205 AccDes= 0.00D+00 IRadAn=         5 IDoV= 1 UseB2=F ITyADJ=14
 ICtDFT=  3500011 ScaDFX=  1.000000  1.000000  1.000000  1.000000
 FoFCou: FMM=F IPFlag=           0 FMFlag=      100000 FMFlg1=           0
         NFxFlg=           0 DoJE=T BraDBF=F KetDBF=T FulRan=T
         wScrn=  0.000000 ICntrl=       500 IOpCl=  0 I1Cent=   200000004 NGrid=           0
         NMat0=    1 NMatS0=      1 NMatT0=    0 NMatD0=    1 NMtDS0=    0 NMtDT0=    0
 Petite list used in FoFCou.
 Harris En= -474.781127535738    
 JPrj=0 DoOrth=F DoCkMO=F.
 Initial guess orbital symmetries:
       Occupied  (A') (A') (A') (A") (A') (A') (A') (A') (A") (A')
                 (A') (A') (A") (A') (A') (A') (A") (A') (A") (A')
                 (A") (A') (A") (A") (A')
       Virtual   (A') (A') (A") (A') (A") (A') (A') (A') (A") (A')
                 (A') (A") (A') (A') (A") (A') (A') (A") (A') (A')
                 (A') (A") (A') (A") (A') (A") (A') (A") (A') (A')
                 (A") (A') (A") (A') (A') (A") (A') (A") (A') (A')
                 (A') (A") (A') (A") (A') (A") (A') (A") (A') (A')
                 (A') (A') (A") (A") (A') (A') (A') (A') (A") (A')
                 (A") (A') (A") (A") (A') (A') (A") (A') (A') (A")
                 (A') (A") (A') (A") (A') (A") (A') (A') (A") (A")
                 (A') (A") (A') (A") (A') (A") (A') (A') (A") (A')
                 (A") (A') (A') (A') (A") (A') (A') (A") (A') (A")
                 (A') (A") (A') (A') (A') (A") (A') (A") (A') (A")
                 (A") (A') (A') (A') (A") (A') (A') (A") (A') (A')
                 (A") (A") (A') (A") (A') (A") (A') (A') (A') (A')
                 (A") (A") (A') (A") (A') (A') (A") (A") (A') (A")
                 (A") (A') (A") (A') (A") (A') (A") (A') (A') (A')
                 (A") (A') (A") (A') (A') (A') (A") (A') (A') (A')
                 (A") (A') (A')
 The electronic state of the initial guess is 1-A'.
 Leave Link  401 at Fri Sep  6 11:29:59 2024, MaxMem=  1610612736 cpu:               1.7 elap:               0.2
 (Enter /Users/asuyarger/Applications/G16/g16/l502.exe)
 Keep R1 ints in memory in symmetry-blocked form, NReq=237061897.
 FoFCou: FMM=F IPFlag=           0 FMFlag=           0 FMFlg1=           0
         NFxFlg=           0 DoJE=F BraDBF=F KetDBF=F FulRan=T
         wScrn=  0.000000 ICntrl=       600 IOpCl=  0 I1Cent=           0 NGrid=           0
         NMat0=    1 NMatS0=  17766 NMatT0=    0 NMatD0=    1 NMtDS0=    0 NMtDT0=    0
 Petite list used in FoFCou.
 Closed shell SCF:
 Using DIIS extrapolation, IDIIS=  1040.
 NGot=  1610612736 LenX=  1531291995 LenY=  1531251554
 Requested convergence on RMS density matrix=1.00D-08 within 128 cycles.
 Requested convergence on MAX density matrix=1.00D-06.
 Requested convergence on             energy=1.00D-06.
 No special actions if energy rises.

 Cycle   1  Pass 1  IDiag  1:
 E= -474.679505162761    
 DIIS: error= 6.80D-02 at cycle   1 NSaved=   1.
 NSaved= 1 IEnMin= 1 EnMin= -474.679505162761     IErMin= 1 ErrMin= 6.80D-02
 ErrMax= 6.80D-02  0.00D+00 EMaxC= 1.00D-01 BMatC= 5.57D-01 BMatP= 5.57D-01
 IDIUse=3 WtCom= 3.20D-01 WtEn= 6.80D-01
 Coeff-Com:  0.100D+01
 Coeff-En:   0.100D+01
 Coeff:      0.100D+01
 Gap=     0.647 Goal=   None    Shift=    0.000
 GapD=    0.647 DampG=2.000 DampE=0.500 DampFc=1.0000 IDamp=-1.
 RMSDP=1.45D-03 MaxDP=6.42D-02              OVMax= 7.47D-02

 Cycle   2  Pass 1  IDiag  1:
 E= -474.796307341210     Delta-E=       -0.116802178449 Rises=F Damp=F
 DIIS: error= 9.73D-03 at cycle   2 NSaved=   2.
 NSaved= 2 IEnMin= 2 EnMin= -474.796307341210     IErMin= 2 ErrMin= 9.73D-03
 ErrMax= 9.73D-03  0.00D+00 EMaxC= 1.00D-01 BMatC= 2.07D-02 BMatP= 5.57D-01
 IDIUse=3 WtCom= 9.03D-01 WtEn= 9.73D-02
 Coeff-Com:  0.544D-01 0.946D+00
 Coeff-En:   0.000D+00 0.100D+01
 Coeff:      0.491D-01 0.951D+00
 Gap=     0.600 Goal=   None    Shift=    0.000
 RMSDP=6.21D-04 MaxDP=2.56D-02 DE=-1.17D-01 OVMax= 2.76D-02

 Cycle   3  Pass 1  IDiag  1:
 E= -474.806917862033     Delta-E=       -0.010610520824 Rises=F Damp=F
 DIIS: error= 5.12D-03 at cycle   3 NSaved=   3.
 NSaved= 3 IEnMin= 3 EnMin= -474.806917862033     IErMin= 3 ErrMin= 5.12D-03
 ErrMax= 5.12D-03  0.00D+00 EMaxC= 1.00D-01 BMatC= 5.17D-03 BMatP= 2.07D-02
 IDIUse=3 WtCom= 9.49D-01 WtEn= 5.12D-02
 Coeff-Com: -0.214D-01 0.309D+00 0.713D+00
 Coeff-En:   0.000D+00 0.000D+00 0.100D+01
 Coeff:     -0.203D-01 0.293D+00 0.727D+00
 Gap=     0.596 Goal=   None    Shift=    0.000
 RMSDP=1.88D-04 MaxDP=1.07D-02 DE=-1.06D-02 OVMax= 8.86D-03

 Cycle   4  Pass 1  IDiag  1:
 E= -474.809736231021     Delta-E=       -0.002818368987 Rises=F Damp=F
 DIIS: error= 5.76D-04 at cycle   4 NSaved=   4.
 NSaved= 4 IEnMin= 4 EnMin= -474.809736231021     IErMin= 4 ErrMin= 5.76D-04
 ErrMax= 5.76D-04  0.00D+00 EMaxC= 1.00D-01 BMatC= 7.81D-05 BMatP= 5.17D-03
 IDIUse=3 WtCom= 9.94D-01 WtEn= 5.76D-03
 Coeff-Com: -0.324D-02 0.140D-01 0.100D+00 0.889D+00
 Coeff-En:   0.000D+00 0.000D+00 0.000D+00 0.100D+01
 Coeff:     -0.322D-02 0.140D-01 0.998D-01 0.890D+00
 Gap=     0.593 Goal=   None    Shift=    0.000
 RMSDP=3.62D-05 MaxDP=9.09D-04 DE=-2.82D-03 OVMax= 1.83D-03

 Cycle   5  Pass 1  IDiag  1:
 E= -474.809813742248     Delta-E=       -0.000077511227 Rises=F Damp=F
 DIIS: error= 2.32D-04 at cycle   5 NSaved=   5.
 NSaved= 5 IEnMin= 5 EnMin= -474.809813742248     IErMin= 5 ErrMin= 2.32D-04
 ErrMax= 2.32D-04  0.00D+00 EMaxC= 1.00D-01 BMatC= 8.44D-06 BMatP= 7.81D-05
 IDIUse=3 WtCom= 9.98D-01 WtEn= 2.32D-03
 Coeff-Com:  0.163D-02-0.304D-01-0.665D-01 0.874D-01 0.101D+01
 Coeff-En:   0.000D+00 0.000D+00 0.000D+00 0.000D+00 0.100D+01
 Coeff:      0.162D-02-0.303D-01-0.663D-01 0.872D-01 0.101D+01
 Gap=     0.593 Goal=   None    Shift=    0.000
 RMSDP=1.77D-05 MaxDP=7.40D-04 DE=-7.75D-05 OVMax= 8.32D-04

 Cycle   6  Pass 1  IDiag  1:
 E= -474.809824589842     Delta-E=       -0.000010847594 Rises=F Damp=F
 DIIS: error= 3.49D-05 at cycle   6 NSaved=   6.
 NSaved= 6 IEnMin= 6 EnMin= -474.809824589842     IErMin= 6 ErrMin= 3.49D-05
 ErrMax= 3.49D-05  0.00D+00 EMaxC= 1.00D-01 BMatC= 2.99D-07 BMatP= 8.44D-06
 IDIUse=1 WtCom= 1.00D+00 WtEn= 0.00D+00
 Coeff-Com:  0.184D-03-0.103D-02-0.364D-02-0.388D-01-0.200D-01 0.106D+01
 Coeff:      0.184D-03-0.103D-02-0.364D-02-0.388D-01-0.200D-01 0.106D+01
 Gap=     0.593 Goal=   None    Shift=    0.000
 RMSDP=4.16D-06 MaxDP=7.23D-05 DE=-1.08D-05 OVMax= 2.29D-04

 Cycle   7  Pass 1  IDiag  1:
 E= -474.809825100115     Delta-E=       -0.000000510273 Rises=F Damp=F
 DIIS: error= 1.48D-05 at cycle   7 NSaved=   7.
 NSaved= 7 IEnMin= 7 EnMin= -474.809825100115     IErMin= 7 ErrMin= 1.48D-05
 ErrMax= 1.48D-05  0.00D+00 EMaxC= 1.00D-01 BMatC= 4.14D-08 BMatP= 2.99D-07
 IDIUse=1 WtCom= 1.00D+00 WtEn= 0.00D+00
 Coeff-Com: -0.768D-04 0.189D-02 0.434D-02-0.147D-01-0.704D-01 0.164D+00
 Coeff-Com:  0.915D+00
 Coeff:     -0.768D-04 0.189D-02 0.434D-02-0.147D-01-0.704D-01 0.164D+00
 Coeff:      0.915D+00
 Gap=     0.593 Goal=   None    Shift=    0.000
 RMSDP=1.24D-06 MaxDP=3.11D-05 DE=-5.10D-07 OVMax= 5.97D-05

 Cycle   8  Pass 1  IDiag  1:
 E= -474.809825144786     Delta-E=       -0.000000044671 Rises=F Damp=F
 DIIS: error= 5.44D-06 at cycle   8 NSaved=   8.
 NSaved= 8 IEnMin= 8 EnMin= -474.809825144786     IErMin= 8 ErrMin= 5.44D-06
 ErrMax= 5.44D-06  0.00D+00 EMaxC= 1.00D-01 BMatC= 4.32D-09 BMatP= 4.14D-08
 IDIUse=1 WtCom= 1.00D+00 WtEn= 0.00D+00
 Coeff-Com: -0.319D-04 0.417D-03 0.120D-02 0.170D-02-0.697D-02-0.101D+00
 Coeff-Com:  0.146D+00 0.959D+00
 Coeff:     -0.319D-04 0.417D-03 0.120D-02 0.170D-02-0.697D-02-0.101D+00
 Coeff:      0.146D+00 0.959D+00
 Gap=     0.593 Goal=   None    Shift=    0.000
 RMSDP=4.45D-07 MaxDP=8.47D-06 DE=-4.47D-08 OVMax= 1.98D-05

 Cycle   9  Pass 1  IDiag  1:
 E= -474.809825149746     Delta-E=       -0.000000004960 Rises=F Damp=F
 DIIS: error= 9.17D-07 at cycle   9 NSaved=   9.
 NSaved= 9 IEnMin= 9 EnMin= -474.809825149746     IErMin= 9 ErrMin= 9.17D-07
 ErrMax= 9.17D-07  0.00D+00 EMaxC= 1.00D-01 BMatC= 1.73D-10 BMatP= 4.32D-09
 IDIUse=1 WtCom= 1.00D+00 WtEn= 0.00D+00
 Coeff-Com:  0.451D-05-0.110D-03-0.297D-03 0.564D-03 0.403D-02-0.148D-02
 Coeff-Com: -0.637D-01-0.512D-01 0.111D+01
 Coeff:      0.451D-05-0.110D-03-0.297D-03 0.564D-03 0.403D-02-0.148D-02
 Coeff:     -0.637D-01-0.512D-01 0.111D+01
 Gap=     0.593 Goal=   None    Shift=    0.000
 RMSDP=1.08D-07 MaxDP=3.28D-06 DE=-4.96D-09 OVMax= 5.81D-06

 Cycle  10  Pass 1  IDiag  1:
 E= -474.809825150061     Delta-E=       -0.000000000315 Rises=F Damp=F
 DIIS: error= 2.60D-07 at cycle  10 NSaved=  10.
 NSaved=10 IEnMin=10 EnMin= -474.809825150061     IErMin=10 ErrMin= 2.60D-07
 ErrMax= 2.60D-07  0.00D+00 EMaxC= 1.00D-01 BMatC= 1.32D-11 BMatP= 1.73D-10
 IDIUse=1 WtCom= 1.00D+00 WtEn= 0.00D+00
 Coeff-Com:  0.265D-05-0.381D-04-0.109D-03-0.732D-04 0.926D-03 0.646D-02
 Coeff-Com: -0.132D-01-0.683D-01 0.195D-01 0.105D+01
 Coeff:      0.265D-05-0.381D-04-0.109D-03-0.732D-04 0.926D-03 0.646D-02
 Coeff:     -0.132D-01-0.683D-01 0.195D-01 0.105D+01
 Gap=     0.593 Goal=   None    Shift=    0.000
 RMSDP=3.43D-08 MaxDP=1.07D-06 DE=-3.15D-10 OVMax= 2.45D-06

 Cycle  11  Pass 1  IDiag  1:
 E= -474.809825150091     Delta-E=       -0.000000000030 Rises=F Damp=F
 DIIS: error= 6.69D-08 at cycle  11 NSaved=  11.
 NSaved=11 IEnMin=11 EnMin= -474.809825150091     IErMin=11 ErrMin= 6.69D-08
 ErrMax= 6.69D-08  0.00D+00 EMaxC= 1.00D-01 BMatC= 1.17D-12 BMatP= 1.32D-11
 IDIUse=1 WtCom= 1.00D+00 WtEn= 0.00D+00
 Coeff-Com: -0.307D-06 0.848D-05 0.203D-04-0.448D-04-0.297D-03 0.203D-03
 Coeff-Com:  0.497D-02 0.298D-02-0.922D-01 0.671D-01 0.102D+01
 Coeff:     -0.307D-06 0.848D-05 0.203D-04-0.448D-04-0.297D-03 0.203D-03
 Coeff:      0.497D-02 0.298D-02-0.922D-01 0.671D-01 0.102D+01
 Gap=     0.593 Goal=   None    Shift=    0.000
 RMSDP=1.06D-08 MaxDP=3.29D-07 DE=-3.00D-11 OVMax= 5.17D-07

 Cycle  12  Pass 1  IDiag  1:
 E= -474.809825150086     Delta-E=        0.000000000005 Rises=F Damp=F
 DIIS: error= 2.47D-08 at cycle  12 NSaved=  12.
 NSaved=12 IEnMin=11 EnMin= -474.809825150091     IErMin=12 ErrMin= 2.47D-08
 ErrMax= 2.47D-08  0.00D+00 EMaxC= 1.00D-01 BMatC= 1.36D-13 BMatP= 1.17D-12
 IDIUse=1 WtCom= 1.00D+00 WtEn= 0.00D+00
 Coeff-Com: -0.314D-06 0.543D-05 0.145D-04-0.222D-05-0.153D-03-0.603D-03
 Coeff-Com:  0.233D-02 0.754D-02-0.236D-01-0.782D-01 0.206D+00 0.887D+00
 Coeff:     -0.314D-06 0.543D-05 0.145D-04-0.222D-05-0.153D-03-0.603D-03
 Coeff:      0.233D-02 0.754D-02-0.236D-01-0.782D-01 0.206D+00 0.887D+00
 Gap=     0.593 Goal=   None    Shift=    0.000
 RMSDP=2.84D-09 MaxDP=7.68D-08 DE= 4.55D-12 OVMax= 1.26D-07

 SCF Done:  E(RHF) =  -474.809825150     A.U. after   12 cycles
            NFock= 12  Conv=0.28D-08     -V/T= 2.0010
 KE= 4.743570331990D+02 PE=-1.674025684945D+03 EE= 4.536149855722D+02
 Leave Link  502 at Fri Sep  6 11:30:00 2024, MaxMem=  1610612736 cpu:              15.7 elap:               1.6
 (Enter /Users/asuyarger/Applications/G16/g16/l601.exe)
 Copying SCF densities to generalized density rwf, IOpCl= 0 IROHF=0.

 **********************************************************************

            Population analysis using the SCF density.

 **********************************************************************

 Orbital symmetries:
       Occupied  (A') (A") (A') (A') (A') (A') (A') (A') (A") (A')
                 (A') (A') (A') (A") (A') (A") (A') (A') (A") (A')
                 (A") (A') (A") (A") (A')
       Virtual   (A') (A") (A') (A') (A") (A') (A') (A") (A') (A')
                 (A") (A') (A') (A') (A") (A') (A") (A') (A') (A')
                 (A") (A') (A") (A') (A') (A") (A") (A') (A') (A')
                 (A") (A") (A') (A') (A') (A") (A") (A') (A') (A')
                 (A") (A') (A") (A') (A') (A") (A') (A") (A') (A')
                 (A') (A') (A") (A") (A') (A') (A') (A") (A') (A')
                 (A") (A') (A') (A") (A") (A') (A") (A') (A') (A")
                 (A') (A") (A") (A') (A') (A") (A') (A') (A") (A")
                 (A") (A') (A') (A') (A") (A") (A') (A') (A") (A')
                 (A") (A') (A') (A') (A") (A') (A") (A') (A') (A")
                 (A') (A") (A') (A') (A') (A") (A") (A') (A') (A")
                 (A') (A') (A") (A') (A") (A') (A") (A') (A') (A')
                 (A") (A") (A") (A') (A') (A") (A') (A') (A') (A')
                 (A") (A") (A') (A") (A') (A') (A") (A") (A') (A")
                 (A") (A") (A') (A') (A") (A') (A") (A') (A') (A')
                 (A") (A') (A") (A') (A') (A') (A") (A') (A') (A')
                 (A") (A') (A')
 The electronic state is 1-A'.
 Alpha  occ. eigenvalues --  -26.36135 -26.35399 -26.35397 -26.32182 -11.52855
 Alpha  occ. eigenvalues --  -11.35204  -1.73809  -1.65235  -1.64641  -1.64074
 Alpha  occ. eigenvalues --   -1.07348  -0.94194  -0.84030  -0.83964  -0.82040
 Alpha  occ. eigenvalues --   -0.75418  -0.74079  -0.71532  -0.71375  -0.68533
 Alpha  occ. eigenvalues --   -0.67754  -0.67716  -0.66465  -0.57206  -0.55348
 Alpha virt. eigenvalues --    0.03983   0.06346   0.09320   0.09740   0.12636
 Alpha virt. eigenvalues --    0.12766   0.13239   0.15731   0.17107   0.18915
 Alpha virt. eigenvalues --    0.25385   0.25486   0.27786   0.32450   0.32595
 Alpha virt. eigenvalues --    0.34112   0.34127   0.35868   0.38222   0.39075
 Alpha virt. eigenvalues --    0.39917   0.40277   0.41046   0.41288   0.44932
 Alpha virt. eigenvalues --    0.45383   0.45916   0.46841   0.48537   0.49875
 Alpha virt. eigenvalues --    0.51175   0.55098   0.55324   0.56408   0.58087
 Alpha virt. eigenvalues --    0.61083   0.66371   0.66761   0.70640   0.72319
 Alpha virt. eigenvalues --    0.82663   0.84321   0.88262   0.89562   0.92461
 Alpha virt. eigenvalues --    0.96028   0.98783   1.09046   1.10655   1.13114
 Alpha virt. eigenvalues --    1.13276   1.26787   1.27889   1.36246   1.39056
 Alpha virt. eigenvalues --    1.39957   1.49256   1.50391   1.51320   1.57106
 Alpha virt. eigenvalues --    1.58523   1.61400   1.63452   1.64355   1.64896
 Alpha virt. eigenvalues --    1.68507   1.69428   1.72061   1.78332   1.79559
 Alpha virt. eigenvalues --    1.83521   2.05248   2.13155   2.13373   2.15663
 Alpha virt. eigenvalues --    2.21036   2.23030   2.25532   2.26356   2.32650
 Alpha virt. eigenvalues --    2.35025   2.35529   2.40620   2.41536   2.42312
 Alpha virt. eigenvalues --    2.43677   2.48743   2.57382   2.59574   2.70551
 Alpha virt. eigenvalues --    2.71936   2.74231   2.86553   2.93734   2.94760
 Alpha virt. eigenvalues --    3.00854   3.07194   3.08805   3.16493   3.29917
 Alpha virt. eigenvalues --    3.33057   3.33994   3.35797   3.70178   3.75377
 Alpha virt. eigenvalues --    3.77706   3.81040   3.81091   3.82868   3.83038
 Alpha virt. eigenvalues --    3.84713   3.87999   3.88654   3.89692   4.56015
 Alpha virt. eigenvalues --    4.60754   4.61955   4.62018   4.78356   6.91909
 Alpha virt. eigenvalues --    6.92792   6.95194   6.98361   6.99752   7.01061
 Alpha virt. eigenvalues --    7.01888   7.02547   7.06912   7.28855   7.36570
 Alpha virt. eigenvalues --    7.36928   8.71191   8.75822   8.80911   8.81614
 Alpha virt. eigenvalues --    9.00188   9.08526   9.63190   9.66384   9.66743
 Alpha virt. eigenvalues --    9.73021   9.74412   9.75358   9.76499   9.79114
 Alpha virt. eigenvalues --    9.80065   9.86768   9.88733   9.99259  10.03932
 Alpha virt. eigenvalues --   10.06432  10.21532  10.25731  10.26955  10.34719
 Alpha virt. eigenvalues --   10.41855  10.42082  24.95166  25.15569  68.78842
 Alpha virt. eigenvalues --   68.79495  68.81030  68.86629
     Molecular Orbital Coefficients:
                           1         2         3         4         5
                           O         O         O         O         O
     Eigenvalues --   -26.36135 -26.35399 -26.35397 -26.32182 -11.52855
   1 1   C  1S         -0.00000   0.00000  -0.00000   0.00000   0.56386
   2        2S         -0.00004   0.00000  -0.00006  -0.00000   0.46666
   3        2PX        -0.00001   0.00000   0.00000   0.00000  -0.00100
   4        2PY         0.00000   0.00000   0.00001   0.00000   0.00170
   5        2PZ         0.00000  -0.00001   0.00000   0.00000   0.00000
   6        3S          0.00011   0.00000   0.00016   0.00001   0.00264
   7        3PX         0.00026   0.00000  -0.00031  -0.00003   0.00094
   8        3PY         0.00029   0.00000  -0.00001  -0.00001  -0.00157
   9        3PZ         0.00000   0.00045   0.00000   0.00000   0.00000
  10        4S          0.00032   0.00000   0.00059   0.00011  -0.00153
  11        4PX         0.00047   0.00000  -0.00044  -0.00008   0.00052
  12        4PY         0.00041   0.00000  -0.00016   0.00006  -0.00096
  13        4PZ         0.00000   0.00074   0.00000   0.00000   0.00000
  14        5S         -0.00122   0.00000  -0.00190   0.00116  -0.00175
  15        5PX        -0.00024   0.00000  -0.00018   0.00010  -0.00027
  16        5PY         0.00019   0.00000   0.00044  -0.00027   0.00048
  17        5PZ         0.00000  -0.00014   0.00000   0.00000   0.00000
  18        6D 0       -0.00003   0.00000   0.00005  -0.00001  -0.00003
  19        6D+1        0.00000  -0.00009   0.00000   0.00000   0.00000
  20        6D-1        0.00000   0.00001   0.00000   0.00000   0.00000
  21        6D+2       -0.00002   0.00000   0.00003  -0.00001  -0.00002
  22        6D-2        0.00006   0.00000  -0.00001   0.00000  -0.00005
  23        7D 0       -0.00019   0.00000   0.00020   0.00010  -0.00036
  24        7D+1        0.00000  -0.00034   0.00000   0.00000   0.00000
  25        7D-1        0.00000  -0.00002   0.00000   0.00000   0.00000
  26        7D+2       -0.00005   0.00000   0.00010   0.00008  -0.00027
  27        7D-2        0.00022   0.00000  -0.00006  -0.00007  -0.00059
  28 2   F  1S         -0.00071   0.38726   0.38726   0.00001  -0.00007
  29        2S         -0.00062   0.33480   0.33480   0.00001  -0.00011
  30        2PX        -0.00001   0.00048   0.00048  -0.00000   0.00009
  31        2PY        -0.00000  -0.00001  -0.00001   0.00000  -0.00001
  32        2PZ         0.00000  -0.00067  -0.00066   0.00000  -0.00011
  33        3S         -0.00002   0.00446   0.00445   0.00001   0.00016
  34        3PX         0.00001  -0.00016  -0.00017   0.00000   0.00028
  35        3PY         0.00000   0.00000  -0.00001  -0.00001  -0.00001
  36        3PZ         0.00000   0.00024   0.00023  -0.00000  -0.00039
  37        4S          0.00011  -0.00111  -0.00098  -0.00008   0.00089
  38        4PX         0.00001  -0.00015  -0.00004  -0.00005   0.00034
  39        4PY        -0.00004   0.00002   0.00003   0.00002   0.00002
  40        4PZ        -0.00008   0.00013   0.00012   0.00005  -0.00051
  41        5S          0.00014   0.00032   0.00044  -0.00013   0.00079
  42        5PX        -0.00003  -0.00001   0.00002  -0.00001   0.00012
  43        5PY        -0.00005  -0.00002  -0.00002   0.00000  -0.00008
  44        5PZ         0.00001  -0.00004   0.00004   0.00004  -0.00011
  45        6D 0       -0.00000  -0.00001  -0.00001  -0.00000   0.00003
  46        6D+1        0.00000   0.00000   0.00001  -0.00000  -0.00005
  47        6D-1       -0.00000   0.00000   0.00000  -0.00000   0.00001
  48        6D+2       -0.00000  -0.00000  -0.00000  -0.00000   0.00002
  49        6D-2        0.00000  -0.00000  -0.00000  -0.00000  -0.00001
  50        7D 0        0.00002  -0.00006  -0.00007   0.00000   0.00014
  51        7D+1       -0.00001   0.00013   0.00009   0.00001  -0.00018
  52        7D-1        0.00001  -0.00001  -0.00000   0.00000  -0.00002
  53        7D+2        0.00001  -0.00004  -0.00004   0.00000   0.00007
  54        7D-2       -0.00002   0.00000   0.00000   0.00000   0.00004
  55 3   F  1S          0.54767   0.00000   0.00101  -0.00001  -0.00007
  56        2S          0.47348   0.00000   0.00088  -0.00001  -0.00011
  57        2PX        -0.00070   0.00000   0.00000   0.00000  -0.00008
  58        2PY        -0.00092   0.00000   0.00000   0.00000  -0.00012
  59        2PZ         0.00000  -0.00001   0.00000   0.00000   0.00000
  60        3S          0.00630   0.00000  -0.00000   0.00000   0.00015
  61        3PX         0.00025   0.00000   0.00000  -0.00001  -0.00029
  62        3PY         0.00032   0.00000  -0.00000  -0.00001  -0.00039
  63        3PZ         0.00000   0.00001   0.00000   0.00000   0.00000
  64        4S         -0.00148   0.00000   0.00015   0.00008   0.00095
  65        4PX         0.00011   0.00000  -0.00004  -0.00003  -0.00043
  66        4PY         0.00019   0.00000  -0.00010  -0.00004  -0.00049
  67        4PZ         0.00000  -0.00008   0.00000   0.00000   0.00000
  68        5S          0.00056   0.00000   0.00022   0.00012   0.00088
  69        5PX         0.00001   0.00000   0.00006   0.00003  -0.00002
  70        5PY        -0.00003   0.00000  -0.00002  -0.00006  -0.00021
  71        5PZ         0.00000  -0.00006   0.00000   0.00000   0.00000
  72        6D 0        0.00001   0.00000   0.00001   0.00000  -0.00003
  73        6D+1        0.00000  -0.00001   0.00000   0.00000   0.00000
  74        6D-1        0.00000  -0.00000   0.00000   0.00000   0.00000
  75        6D+2        0.00000   0.00000   0.00000  -0.00000  -0.00002
  76        6D-2       -0.00001   0.00000  -0.00000   0.00000   0.00005
  77        7D 0        0.00009   0.00000  -0.00002  -0.00001  -0.00010
  78        7D+1        0.00000   0.00003   0.00000   0.00000   0.00000
  79        7D-1        0.00000   0.00001   0.00000   0.00000   0.00000
  80        7D+2        0.00004   0.00000  -0.00002   0.00001   0.00000
  81        7D-2       -0.00015   0.00000   0.00001   0.00000   0.00023
  82 4   C  1S          0.00000   0.00000   0.00000  -0.00000   0.00091
  83        2S         -0.00000   0.00000  -0.00000  -0.00004   0.00073
  84        2PX         0.00000   0.00000   0.00000   0.00000  -0.00010
  85        2PY        -0.00000   0.00000  -0.00000  -0.00000   0.00013
  86        2PZ         0.00000  -0.00000   0.00000   0.00000   0.00000
  87        3S          0.00004   0.00000   0.00001   0.00008   0.00026
  88        3PX         0.00002   0.00000  -0.00002  -0.00027   0.00004
  89        3PY         0.00000   0.00000   0.00000  -0.00027  -0.00004
  90        3PZ         0.00000   0.00003   0.00000   0.00000   0.00000
  91        4S          0.00001   0.00000   0.00021  -0.00001  -0.00216
  92        4PX        -0.00002   0.00000  -0.00003  -0.00087   0.00070
  93        4PY         0.00005   0.00000  -0.00021  -0.00058  -0.00130
  94        4PZ         0.00000   0.00001   0.00000   0.00000   0.00000
  95        5S          0.00052   0.00000   0.00140  -0.00209   0.00012
  96        5PX        -0.00016   0.00000  -0.00027   0.00017  -0.00034
  97        5PY         0.00021   0.00000   0.00030  -0.00022   0.00019
  98        5PZ         0.00000  -0.00007   0.00000   0.00000   0.00000
  99        6D 0       -0.00000   0.00000  -0.00000  -0.00004  -0.00004
 100        6D+1        0.00000  -0.00000   0.00000   0.00000   0.00000
 101        6D-1        0.00000  -0.00000   0.00000   0.00000   0.00000
 102        6D+2       -0.00000   0.00000  -0.00000  -0.00002  -0.00003
 103        6D-2        0.00000   0.00000  -0.00001   0.00006  -0.00007
 104        7D 0        0.00006   0.00000  -0.00005  -0.00022   0.00020
 105        7D+1        0.00000   0.00011   0.00000   0.00000   0.00000
 106        7D-1        0.00000  -0.00002   0.00000   0.00000   0.00000
 107        7D+2        0.00005   0.00000  -0.00003  -0.00007   0.00012
 108        7D-2       -0.00006   0.00000   0.00007   0.00021   0.00026
 109 5   H  1S          0.00000   0.00000   0.00001   0.00000  -0.00004
 110        2S         -0.00006   0.00011   0.00001   0.00021   0.00007
 111        3S          0.00001   0.00010  -0.00001   0.00050   0.00045
 112        4S          0.00014  -0.00018   0.00005   0.00020   0.00032
 113        5PX        -0.00000  -0.00000  -0.00000   0.00000   0.00000
 114        5PY        -0.00000   0.00000   0.00000  -0.00000   0.00000
 115        5PZ         0.00000  -0.00000   0.00000   0.00000  -0.00000
 116        6PX         0.00001  -0.00000  -0.00000  -0.00002  -0.00000
 117        6PY         0.00001  -0.00001  -0.00001   0.00001  -0.00000
 118        6PZ        -0.00001   0.00002  -0.00000   0.00002   0.00001
 119        7PX         0.00002  -0.00005   0.00001   0.00003  -0.00015
 120        7PY        -0.00005   0.00004   0.00003   0.00012   0.00023
 121        7PZ        -0.00001   0.00003  -0.00000   0.00013   0.00004
 122 6   H  1S          0.00000  -0.00000   0.00001   0.00000  -0.00004
 123        2S         -0.00006  -0.00011   0.00001   0.00021   0.00007
 124        3S          0.00001  -0.00010  -0.00001   0.00050   0.00045
 125        4S          0.00014   0.00018   0.00005   0.00020   0.00032
 126        5PX        -0.00000   0.00000  -0.00000   0.00000   0.00000
 127        5PY        -0.00000  -0.00000   0.00000  -0.00000   0.00000
 128        5PZ        -0.00000  -0.00000  -0.00000  -0.00000   0.00000
 129        6PX         0.00001   0.00000  -0.00000  -0.00002  -0.00000
 130        6PY         0.00001   0.00001  -0.00001   0.00001  -0.00000
 131        6PZ         0.00001   0.00002   0.00000  -0.00002  -0.00001
 132        7PX         0.00002   0.00005   0.00001   0.00003  -0.00015
 133        7PY        -0.00005  -0.00004   0.00003   0.00012   0.00023
 134        7PZ         0.00001   0.00003   0.00000  -0.00013  -0.00004
 135 7   F  1S         -0.00071  -0.38726   0.38726   0.00001  -0.00007
 136        2S         -0.00062  -0.33480   0.33480   0.00001  -0.00011
 137        2PX        -0.00001  -0.00048   0.00048  -0.00000   0.00009
 138        2PY        -0.00000   0.00001  -0.00001   0.00000  -0.00001
 139        2PZ        -0.00000  -0.00067   0.00066  -0.00000   0.00011
 140        3S         -0.00002  -0.00446   0.00445   0.00001   0.00016
 141        3PX         0.00001   0.00016  -0.00017   0.00000   0.00028
 142        3PY         0.00000  -0.00000  -0.00001  -0.00001  -0.00001
 143        3PZ        -0.00000   0.00024  -0.00023   0.00000   0.00039
 144        4S          0.00011   0.00111  -0.00098  -0.00008   0.00089
 145        4PX         0.00001   0.00015  -0.00004  -0.00005   0.00034
 146        4PY        -0.00004  -0.00002   0.00003   0.00002   0.00002
 147        4PZ         0.00008   0.00013  -0.00012  -0.00005   0.00051
 148        5S          0.00014  -0.00032   0.00044  -0.00013   0.00079
 149        5PX        -0.00003   0.00001   0.00002  -0.00001   0.00012
 150        5PY        -0.00005   0.00002  -0.00002   0.00000  -0.00008
 151        5PZ        -0.00001  -0.00004  -0.00004  -0.00004   0.00011
 152        6D 0       -0.00000   0.00001  -0.00001  -0.00000   0.00003
 153        6D+1       -0.00000   0.00000  -0.00001   0.00000   0.00005
 154        6D-1        0.00000   0.00000  -0.00000   0.00000  -0.00001
 155        6D+2       -0.00000   0.00000  -0.00000  -0.00000   0.00002
 156        6D-2        0.00000   0.00000  -0.00000  -0.00000  -0.00001
 157        7D 0        0.00002   0.00006  -0.00007   0.00000   0.00014
 158        7D+1        0.00001   0.00013  -0.00009  -0.00001   0.00018
 159        7D-1       -0.00001  -0.00001   0.00000  -0.00000   0.00002
 160        7D+2        0.00001   0.00004  -0.00004   0.00000   0.00007
 161        7D-2       -0.00002  -0.00000   0.00000   0.00000   0.00004
 162 8   F  1S          0.00001   0.00000  -0.00002   0.54767   0.00000
 163        2S          0.00001   0.00000  -0.00002   0.47347   0.00001
 164        2PX        -0.00000   0.00000   0.00000   0.00070   0.00000
 165        2PY        -0.00000   0.00000  -0.00000   0.00093  -0.00000
 166        2PZ         0.00000  -0.00000   0.00000   0.00000   0.00000
 167        3S          0.00000   0.00000   0.00002   0.00634  -0.00004
 168        3PX         0.00001   0.00000  -0.00001  -0.00025   0.00002
 169        3PY         0.00001   0.00000   0.00001  -0.00033  -0.00005
 170        3PZ         0.00000   0.00001   0.00000   0.00000   0.00000
 171        4S          0.00007   0.00000  -0.00012  -0.00158   0.00006
 172        4PX         0.00003   0.00000  -0.00003  -0.00012  -0.00003
 173        4PY         0.00003   0.00000  -0.00009  -0.00022   0.00014
 174        4PZ         0.00000  -0.00000   0.00000   0.00000   0.00000
 175        5S          0.00013   0.00000  -0.00026   0.00040   0.00014
 176        5PX         0.00000   0.00000  -0.00006  -0.00004  -0.00011
 177        5PY         0.00004   0.00000  -0.00008  -0.00006   0.00004
 178        5PZ         0.00000  -0.00001   0.00000   0.00000   0.00000
 179        6D 0        0.00000   0.00000  -0.00000   0.00001   0.00001
 180        6D+1        0.00000  -0.00000   0.00000   0.00000   0.00000
 181        6D-1        0.00000   0.00000   0.00000   0.00000   0.00000
 182        6D+2       -0.00000   0.00000  -0.00000   0.00000   0.00001
 183        6D-2       -0.00000   0.00000  -0.00000  -0.00002   0.00000
 184        7D 0       -0.00000   0.00000   0.00001   0.00010  -0.00002
 185        7D+1        0.00000   0.00001   0.00000   0.00000   0.00000
 186        7D-1        0.00000  -0.00000   0.00000   0.00000   0.00000
 187        7D+2        0.00001   0.00000   0.00001   0.00005  -0.00002
 188        7D-2        0.00000   0.00000   0.00000  -0.00015  -0.00001
                           6         7         8         9        10
                           O         O         O         O         O
     Eigenvalues --   -11.35204  -1.73809  -1.65235  -1.64641  -1.64074
   1 1   C  1S         -0.00101  -0.04906   0.00131   0.00000   0.00168
   2        2S         -0.00091  -0.07997   0.00213   0.00000   0.00282
   3        2PX         0.00007  -0.01157   0.04607   0.00000   0.02095
   4        2PY        -0.00011   0.02159   0.03181   0.00000   0.00386
   5        2PZ         0.00000   0.00000   0.00000   0.05966   0.00000
   6        3S          0.00034   0.21722  -0.00504   0.00000  -0.01041
   7        3PX         0.00025  -0.01442   0.05858   0.00000   0.03048
   8        3PY        -0.00034   0.02668   0.04284   0.00000  -0.00053
   9        3PZ         0.00000   0.00000   0.00000   0.07740   0.00000
  10        4S          0.00079  -0.17208  -0.00281   0.00000   0.04595
  11        4PX         0.00029   0.00502  -0.04154   0.00000  -0.01392
  12        4PY         0.00010  -0.01058  -0.01913   0.00000  -0.03922
  13        4PZ         0.00000   0.00000   0.00000  -0.05155   0.00000
  14        5S         -0.00032   0.12249   0.00754   0.00000  -0.06399
  15        5PX        -0.00005   0.01814   0.00241   0.00000  -0.00727
  16        5PY         0.00016  -0.03258   0.00004   0.00000   0.01287
  17        5PZ         0.00000   0.00000   0.00000   0.00199   0.00000
  18        6D 0       -0.00006   0.00327  -0.01196   0.00000  -0.00612
  19        6D+1        0.00000   0.00000   0.00000  -0.01915   0.00000
  20        6D-1        0.00000   0.00000   0.00000   0.00169   0.00000
  21        6D+2       -0.00004   0.00246  -0.00656   0.00000  -0.00382
  22        6D-2       -0.00014   0.00636   0.01119   0.00000   0.00339
  23        7D 0       -0.00020  -0.00045  -0.00202   0.00000  -0.00306
  24        7D+1        0.00000   0.00000   0.00000  -0.00476   0.00000
  25        7D-1        0.00000   0.00000   0.00000   0.00051   0.00000
  26        7D+2       -0.00019  -0.00103   0.00001   0.00000  -0.00487
  27        7D-2        0.00027   0.00023   0.00426   0.00000  -0.00498
  28 2   F  1S          0.00000  -0.06254   0.04646  -0.08670   0.02477
  29        2S          0.00000  -0.10461   0.07791  -0.14542   0.04158
  30        2PX        -0.00001   0.01241  -0.00268   0.01245  -0.00141
  31        2PY         0.00000   0.00082   0.00364  -0.00076  -0.00026
  32        2PZ         0.00000  -0.01845   0.00949  -0.01162   0.00480
  33        3S         -0.00002   0.30117  -0.22730   0.42479  -0.12180
  34        3PX        -0.00001   0.02260  -0.00627   0.02308  -0.00390
  35        3PY         0.00003   0.00165   0.00517  -0.00108   0.00036
  36        3PZ         0.00000  -0.03364   0.01758  -0.02386   0.00933
  37        4S          0.00010   0.27462  -0.19395   0.36267  -0.10634
  38        4PX         0.00005   0.02850  -0.00831   0.02770  -0.00356
  39        4PY        -0.00001  -0.00061   0.00704  -0.00206  -0.00165
  40        4PZ        -0.00007  -0.04062   0.02130  -0.02800   0.00989
  41        5S          0.00024   0.00217   0.00655  -0.02024   0.00979
  42        5PX         0.00004  -0.00037   0.00743  -0.00322   0.00533
  43        5PY        -0.00006   0.00586   0.00339   0.00161   0.00332
  44        5PZ        -0.00001  -0.00334  -0.00093   0.01223  -0.00142
  45        6D 0       -0.00000   0.00068  -0.00058   0.00028  -0.00025
  46        6D+1        0.00000  -0.00093   0.00029  -0.00102   0.00028
  47        6D-1        0.00001  -0.00010  -0.00017   0.00004  -0.00009
  48        6D+2       -0.00000   0.00034  -0.00012   0.00036   0.00004
  49        6D-2        0.00000   0.00013   0.00023  -0.00003   0.00011
  50        7D 0        0.00001   0.00555  -0.00334   0.00483  -0.00204
  51        7D+1       -0.00001  -0.00892   0.00476  -0.00873   0.00188
  52        7D-1       -0.00003   0.00020  -0.00097   0.00029   0.00049
  53        7D+2        0.00001   0.00305  -0.00095   0.00349  -0.00139
  54        7D-2       -0.00001  -0.00022   0.00051  -0.00030  -0.00045
  55 3   F  1S          0.00000  -0.06774  -0.09367   0.00000  -0.02916
  56        2S          0.00000  -0.11333  -0.15712   0.00000  -0.04893
  57        2PX        -0.00000  -0.01536  -0.00929   0.00000  -0.00188
  58        2PY         0.00000  -0.01746  -0.01527   0.00000  -0.00456
  59        2PZ         0.00000   0.00000   0.00000   0.00560   0.00000
  60        3S         -0.00001   0.32670   0.45907   0.00000   0.14308
  61        3PX         0.00000  -0.02817  -0.01932   0.00000  -0.00423
  62        3PY         0.00005  -0.03197  -0.02918   0.00000  -0.00941
  63        3PZ         0.00000   0.00000   0.00000   0.00841   0.00000
  64        4S         -0.00038   0.29637   0.39027   0.00000   0.12631
  65        4PX         0.00013  -0.03146  -0.02149   0.00000  -0.00696
  66        4PY         0.00008  -0.04018  -0.03645   0.00000  -0.00966
  67        4PZ         0.00000   0.00000   0.00000   0.00949   0.00000
  68        5S         -0.00015  -0.00480  -0.01575   0.00000  -0.01486
  69        5PX         0.00007  -0.00581   0.00910   0.00000   0.00183
  70        5PY         0.00005   0.00616   0.00572   0.00000   0.01075
  71        5PZ         0.00000   0.00000   0.00000   0.00910   0.00000
  72        6D 0        0.00000  -0.00060  -0.00059   0.00000  -0.00025
  73        6D+1        0.00000   0.00000   0.00000  -0.00043   0.00000
  74        6D-1        0.00000   0.00000   0.00000  -0.00030   0.00000
  75        6D+2        0.00001  -0.00007  -0.00034   0.00000  -0.00022
  76        6D-2        0.00000   0.00113   0.00092   0.00000   0.00019
  77        7D 0       -0.00001  -0.00573  -0.00581   0.00000  -0.00136
  78        7D+1        0.00000   0.00000   0.00000  -0.00048   0.00000
  79        7D-1        0.00000   0.00000   0.00000  -0.00105   0.00000
  80        7D+2       -0.00003  -0.00222  -0.00278   0.00000  -0.00070
  81        7D-2       -0.00002   0.00968   0.00931   0.00000   0.00309
  82 4   C  1S          0.56344  -0.00728   0.01073   0.00000  -0.02840
  83        2S          0.46653  -0.01168   0.01731   0.00000  -0.04595
  84        2PX        -0.00119  -0.00473   0.01102   0.00000  -0.02364
  85        2PY        -0.00091   0.00246   0.01266   0.00000  -0.03152
  86        2PZ         0.00000   0.00000   0.00000   0.00237   0.00000
  87        3S          0.00455   0.02575  -0.04371   0.00000   0.11648
  88        3PX         0.00119  -0.01405   0.01670   0.00000  -0.03324
  89        3PY         0.00089   0.01455   0.01656   0.00000  -0.03993
  90        3PZ         0.00000   0.00000   0.00000   0.00597   0.00000
  91        4S         -0.00181   0.03732   0.04855   0.00000  -0.11210
  92        4PX         0.00170  -0.00985   0.00356   0.00000   0.06943
  93        4PY         0.00032   0.04303  -0.01878   0.00000   0.05166
  94        4PZ         0.00000   0.00000   0.00000   0.02288   0.00000
  95        5S         -0.00090  -0.07823  -0.00640   0.00000   0.10098
  96        5PX        -0.00014   0.02187   0.00158   0.00000  -0.00753
  97        5PY         0.00000  -0.02243  -0.00147   0.00000   0.01461
  98        5PZ         0.00000   0.00000   0.00000   0.00900   0.00000
  99        6D 0        0.00010  -0.00150   0.00228   0.00000  -0.00726
 100        6D+1        0.00000   0.00000   0.00000  -0.00112   0.00000
 101        6D-1        0.00000   0.00000   0.00000   0.00064   0.00000
 102        6D+2        0.00006  -0.00076   0.00027   0.00000  -0.00336
 103        6D-2       -0.00005  -0.00042  -0.00369   0.00000   0.01210
 104        7D 0        0.00075  -0.00452   0.00393   0.00000   0.00150
 105        7D+1        0.00000   0.00000   0.00000   0.00592   0.00000
 106        7D-1        0.00000   0.00000   0.00000   0.00162   0.00000
 107        7D+2        0.00026  -0.00436  -0.00057   0.00000   0.00345
 108        7D-2       -0.00050  -0.00979  -0.00132   0.00000  -0.00058
 109 5   H  1S          0.00040   0.00187  -0.00252  -0.00040   0.00784
 110        2S         -0.00078   0.00635  -0.01281   0.00791   0.01767
 111        3S          0.00005  -0.00207  -0.00470  -0.00177  -0.00294
 112        4S          0.00027  -0.00974  -0.00033   0.01309  -0.01131
 113        5PX        -0.00006   0.00006   0.00003  -0.00003  -0.00040
 114        5PY         0.00001  -0.00015   0.00009  -0.00004  -0.00038
 115        5PZ         0.00009  -0.00007  -0.00012  -0.00009   0.00016
 116        6PX         0.00011  -0.00135   0.00149   0.00006  -0.00147
 117        6PY        -0.00004   0.00093  -0.00004   0.00034   0.00096
 118        6PZ        -0.00016   0.00166  -0.00077   0.00085   0.00284
 119        7PX         0.00003  -0.00225   0.00169   0.00292  -0.01435
 120        7PY         0.00006  -0.00178   0.00884  -0.00574  -0.01261
 121        7PZ        -0.00026   0.00065  -0.00255  -0.00064  -0.00011
 122 6   H  1S          0.00040   0.00187  -0.00252   0.00040   0.00784
 123        2S         -0.00078   0.00635  -0.01281  -0.00791   0.01767
 124        3S          0.00005  -0.00207  -0.00470   0.00177  -0.00294
 125        4S          0.00027  -0.00974  -0.00033  -0.01309  -0.01131
 126        5PX        -0.00006   0.00006   0.00003   0.00003  -0.00040
 127        5PY         0.00001  -0.00015   0.00009   0.00004  -0.00038
 128        5PZ        -0.00009   0.00007   0.00012  -0.00009  -0.00016
 129        6PX         0.00011  -0.00135   0.00149  -0.00006  -0.00147
 130        6PY        -0.00004   0.00093  -0.00004  -0.00034   0.00096
 131        6PZ         0.00016  -0.00166   0.00077   0.00085  -0.00284
 132        7PX         0.00003  -0.00225   0.00169  -0.00292  -0.01435
 133        7PY         0.00006  -0.00178   0.00884   0.00574  -0.01261
 134        7PZ         0.00026  -0.00065   0.00255  -0.00064   0.00011
 135 7   F  1S          0.00000  -0.06254   0.04646   0.08670   0.02477
 136        2S          0.00000  -0.10461   0.07791   0.14542   0.04158
 137        2PX        -0.00001   0.01241  -0.00268  -0.01245  -0.00141
 138        2PY         0.00000   0.00082   0.00364   0.00076  -0.00026
 139        2PZ        -0.00000   0.01845  -0.00949  -0.01162  -0.00480
 140        3S         -0.00002   0.30117  -0.22730  -0.42479  -0.12180
 141        3PX        -0.00001   0.02260  -0.00627  -0.02308  -0.00390
 142        3PY         0.00003   0.00165   0.00517   0.00108   0.00036
 143        3PZ        -0.00000   0.03364  -0.01758  -0.02386  -0.00933
 144        4S          0.00010   0.27462  -0.19395  -0.36267  -0.10634
 145        4PX         0.00005   0.02850  -0.00831  -0.02770  -0.00356
 146        4PY        -0.00001  -0.00061   0.00704   0.00206  -0.00165
 147        4PZ         0.00007   0.04062  -0.02130  -0.02800  -0.00989
 148        5S          0.00024   0.00217   0.00655   0.02024   0.00979
 149        5PX         0.00004  -0.00037   0.00743   0.00322   0.00533
 150        5PY        -0.00006   0.00586   0.00339  -0.00161   0.00332
 151        5PZ         0.00001   0.00334   0.00093   0.01223   0.00142
 152        6D 0       -0.00000   0.00068  -0.00058  -0.00028  -0.00025
 153        6D+1       -0.00000   0.00093  -0.00029  -0.00102  -0.00028
 154        6D-1       -0.00001   0.00010   0.00017   0.00004   0.00009
 155        6D+2       -0.00000   0.00034  -0.00012  -0.00036   0.00004
 156        6D-2        0.00000   0.00013   0.00023   0.00003   0.00011
 157        7D 0        0.00001   0.00555  -0.00334  -0.00483  -0.00204
 158        7D+1        0.00001   0.00892  -0.00476  -0.00873  -0.00188
 159        7D-1        0.00003  -0.00020   0.00097   0.00029  -0.00049
 160        7D+2        0.00001   0.00305  -0.00095  -0.00349  -0.00139
 161        7D-2       -0.00001  -0.00022   0.00051   0.00030  -0.00045
 162 8   F  1S         -0.00007  -0.00863   0.04193   0.00000  -0.11072
 163        2S         -0.00012  -0.01438   0.07022   0.00000  -0.18551
 164        2PX         0.00008   0.00108  -0.00565   0.00000   0.01568
 165        2PY         0.00011   0.00324  -0.00889   0.00000   0.02020
 166        2PZ         0.00000   0.00000   0.00000   0.00066   0.00000
 167        3S          0.00018   0.04033  -0.20339   0.00000   0.53790
 168        3PX         0.00036   0.00265  -0.01105   0.00000   0.03001
 169        3PY         0.00042   0.00489  -0.01524   0.00000   0.03863
 170        3PZ         0.00000   0.00000   0.00000   0.00088   0.00000
 171        4S          0.00150   0.04233  -0.17497   0.00000   0.48643
 172        4PX         0.00044   0.00350  -0.01215   0.00000   0.03884
 173        4PY         0.00078   0.01059  -0.02204   0.00000   0.05166
 174        4PZ         0.00000   0.00000   0.00000   0.00186   0.00000
 175        5S          0.00144   0.00927  -0.01248   0.00000   0.00896
 176        5PX         0.00020   0.00422  -0.00152   0.00000   0.00131
 177        5PY         0.00037  -0.00007  -0.00431   0.00000  -0.00069
 178        5PZ         0.00000   0.00000   0.00000  -0.00269   0.00000
 179        6D 0       -0.00003   0.00001   0.00020   0.00000  -0.00076
 180        6D+1        0.00000   0.00000   0.00000   0.00010   0.00000
 181        6D-1        0.00000   0.00000   0.00000  -0.00013   0.00000
 182        6D+2       -0.00001   0.00002   0.00003   0.00000  -0.00035
 183        6D-2        0.00007   0.00013  -0.00054   0.00000   0.00121
 184        7D 0       -0.00014  -0.00137   0.00342   0.00000  -0.00732
 185        7D+1        0.00000   0.00000   0.00000  -0.00047   0.00000
 186        7D-1        0.00000   0.00000   0.00000   0.00121   0.00000
 187        7D+2       -0.00008  -0.00129   0.00217   0.00000  -0.00315
 188        7D-2        0.00017   0.00112  -0.00404   0.00000   0.01227
                          11        12        13        14        15
                           O         O         O         O         O
     Eigenvalues --    -1.07348  -0.94194  -0.84030  -0.83964  -0.82040
   1 1   C  1S         -0.06139  -0.05632  -0.00287   0.00000   0.01078
   2        2S         -0.10344  -0.09626  -0.00476   0.00000   0.01780
   3        2PX         0.03689  -0.03628  -0.09381   0.00000  -0.07864
   4        2PY        -0.05217   0.05314  -0.09049   0.00000   0.06695
   5        2PZ         0.00000   0.00000   0.00000   0.12978   0.00000
   6        3S          0.29338   0.28608   0.01365   0.00000  -0.04837
   7        3PX         0.06085  -0.06141  -0.15866   0.00000  -0.13456
   8        3PY        -0.08757   0.09119  -0.15362   0.00000   0.11285
   9        3PZ         0.00000   0.00000   0.00000   0.22029   0.00000
  10        4S          0.13841   0.03969   0.02494   0.00000  -0.07687
  11        4PX         0.03185  -0.01093  -0.02175   0.00000  -0.04729
  12        4PY        -0.04036   0.02285  -0.02856   0.00000   0.03197
  13        4PZ         0.00000   0.00000   0.00000   0.04093   0.00000
  14        5S         -0.03706  -0.20057   0.00395   0.00000  -0.03310
  15        5PX        -0.00053  -0.02733   0.00629   0.00000  -0.01665
  16        5PY        -0.00587   0.04458  -0.00416   0.00000   0.03385
  17        5PZ         0.00000   0.00000   0.00000  -0.00531   0.00000
  18        6D 0       -0.00332   0.00332   0.00811   0.00000   0.00105
  19        6D+1        0.00000   0.00000   0.00000  -0.01460   0.00000
  20        6D-1        0.00000   0.00000   0.00000   0.00609   0.00000
  21        6D+2       -0.00215   0.00204   0.00982   0.00000   0.00203
  22        6D-2       -0.00488   0.00557  -0.01009   0.00000  -0.00435
  23        7D 0       -0.00613   0.00112   0.00317   0.00000   0.00163
  24        7D+1        0.00000   0.00000   0.00000  -0.00761   0.00000
  25        7D-1        0.00000   0.00000   0.00000   0.00842   0.00000
  26        7D+2       -0.00331   0.00063   0.01139   0.00000  -0.00089
  27        7D-2       -0.01561   0.00850  -0.00701   0.00000  -0.01247
  28 2   F  1S          0.02112   0.02301   0.01034   0.01964   0.00487
  29        2S          0.03584   0.03911   0.01761   0.03340   0.00824
  30        2PX         0.03806   0.04778  -0.01544   0.13228  -0.03214
  31        2PY        -0.01851   0.02255  -0.08007   0.00088   0.08345
  32        2PZ        -0.03556  -0.09515  -0.09891  -0.07720  -0.07432
  33        3S         -0.11145  -0.12413  -0.05668  -0.10704  -0.02581
  34        3PX         0.05865   0.07444  -0.02310   0.20361  -0.04873
  35        3PY        -0.02846   0.03447  -0.12211   0.00176   0.12693
  36        3PZ        -0.05479  -0.14749  -0.15253  -0.12013  -0.11394
  37        4S         -0.10203  -0.11372  -0.06091  -0.11663  -0.03200
  38        4PX         0.04157   0.05749  -0.02303   0.15806  -0.04409
  39        4PY        -0.02083   0.02799  -0.10246  -0.00071   0.10735
  40        4PZ        -0.04001  -0.11490  -0.11719  -0.08493  -0.09141
  41        5S         -0.00428   0.01077  -0.01426  -0.01417   0.01388
  42        5PX        -0.00800  -0.00082  -0.00491   0.00254   0.00731
  43        5PY         0.00746  -0.00215   0.00086   0.00200  -0.00640
  44        5PZ         0.00458   0.00125  -0.00256  -0.00334  -0.00431
  45        6D 0        0.00046   0.00193   0.00224   0.00097   0.00160
  46        6D+1       -0.00141  -0.00237  -0.00110  -0.00363  -0.00060
  47        6D-1        0.00047  -0.00042   0.00122  -0.00004  -0.00110
  48        6D+2        0.00059   0.00072  -0.00001   0.00167  -0.00016
  49        6D-2       -0.00046   0.00042  -0.00092   0.00007   0.00071
  50        7D 0        0.00222   0.00816   0.00828   0.00135   0.00768
  51        7D+1       -0.00627  -0.01058  -0.00397  -0.01264  -0.00067
  52        7D-1        0.00267  -0.00211   0.00763   0.00062  -0.00661
  53        7D+2        0.00272   0.00304  -0.00204   0.00740  -0.00222
  54        7D-2       -0.00178   0.00141  -0.00432  -0.00065   0.00514
  55 3   F  1S          0.02245   0.02164  -0.02241   0.00000  -0.00228
  56        2S          0.03811   0.03678  -0.03811   0.00000  -0.00389
  57        2PX        -0.01627  -0.09154   0.10024   0.00000  -0.08021
  58        2PY        -0.05802  -0.06071   0.13443   0.00000   0.08819
  59        2PZ         0.00000   0.00000   0.00000   0.12263   0.00000
  60        3S         -0.11868  -0.11665   0.12243   0.00000   0.01289
  61        3PX        -0.02542  -0.14137   0.15532   0.00000  -0.12166
  62        3PY        -0.08948  -0.09447   0.20782   0.00000   0.13430
  63        3PZ         0.00000   0.00000   0.00000   0.18770   0.00000
  64        4S         -0.10590  -0.11235   0.13226   0.00000   0.02154
  65        4PX        -0.01950  -0.11012   0.11488   0.00000  -0.10779
  66        4PY        -0.06557  -0.07194   0.15780   0.00000   0.10884
  67        4PZ         0.00000   0.00000   0.00000   0.15355   0.00000
  68        5S         -0.01075   0.01238   0.00818   0.00000   0.02795
  69        5PX        -0.00081   0.00231   0.00478   0.00000   0.00089
  70        5PY         0.01579  -0.00124   0.00677   0.00000  -0.01268
  71        5PZ         0.00000   0.00000   0.00000   0.00528   0.00000
  72        6D 0       -0.00091  -0.00145   0.00233   0.00000   0.00020
  73        6D+1        0.00000   0.00000   0.00000  -0.00158   0.00000
  74        6D-1        0.00000   0.00000   0.00000  -0.00177   0.00000
  75        6D+2       -0.00111   0.00025   0.00095   0.00000   0.00194
  76        6D-2        0.00116   0.00284  -0.00394   0.00000   0.00000
  77        7D 0       -0.00398  -0.00673   0.00763   0.00000   0.00107
  78        7D+1        0.00000   0.00000   0.00000  -0.00611   0.00000
  79        7D-1        0.00000   0.00000   0.00000  -0.01015   0.00000
  80        7D+2       -0.00495   0.00075   0.00485   0.00000   0.01203
  81        7D-2        0.00564   0.01215  -0.01321   0.00000   0.00122
  82 4   C  1S         -0.07684   0.05077   0.00463   0.00000  -0.02496
  83        2S         -0.12781   0.08486   0.00774   0.00000  -0.04239
  84        2PX        -0.00280  -0.02824  -0.04067   0.00000   0.04319
  85        2PY         0.03973   0.01926   0.00564   0.00000  -0.08147
  86        2PZ         0.00000   0.00000   0.00000   0.04426   0.00000
  87        3S          0.33616  -0.22582  -0.02039   0.00000   0.11424
  88        3PX        -0.02259  -0.03948  -0.06542   0.00000   0.06267
  89        3PY         0.06639   0.03976   0.00908   0.00000  -0.13209
  90        3PZ         0.00000   0.00000   0.00000   0.07037   0.00000
  91        4S          0.09354  -0.04084   0.01368   0.00000  -0.00955
  92        4PX        -0.02936  -0.01409  -0.02779   0.00000   0.01261
  93        4PY         0.02952   0.01101  -0.00323   0.00000  -0.03299
  94        4PZ         0.00000   0.00000   0.00000   0.03041   0.00000
  95        5S         -0.00916   0.17851   0.04237   0.00000  -0.06302
  96        5PX        -0.00268  -0.02323   0.00816   0.00000  -0.00469
  97        5PY         0.00926   0.03263   0.00502   0.00000  -0.00789
  98        5PZ         0.00000   0.00000   0.00000   0.00075   0.00000
  99        6D 0       -0.00115  -0.00306  -0.00349   0.00000   0.00287
 100        6D+1        0.00000   0.00000   0.00000   0.00057   0.00000
 101        6D-1        0.00000   0.00000   0.00000   0.00130   0.00000
 102        6D+2       -0.00090  -0.00117   0.00282   0.00000  -0.00022
 103        6D-2       -0.00653  -0.00404  -0.00099   0.00000   0.01067
 104        7D 0       -0.00961  -0.00311  -0.00593   0.00000  -0.00203
 105        7D+1        0.00000   0.00000   0.00000   0.00258   0.00000
 106        7D-1        0.00000   0.00000   0.00000   0.00405   0.00000
 107        7D+2       -0.00556  -0.00257   0.00714   0.00000  -0.00383
 108        7D-2       -0.01166  -0.00878   0.00045   0.00000   0.01080
 109 5   H  1S          0.05686  -0.05458  -0.02056  -0.02439   0.04132
 110        2S          0.09537  -0.08352  -0.02915  -0.03414   0.07291
 111        3S          0.03206  -0.03551  -0.03045  -0.02522   0.06034
 112        4S          0.00663  -0.00090  -0.01229  -0.00157   0.01812
 113        5PX        -0.00106   0.00100   0.00037   0.00063  -0.00074
 114        5PY         0.00023   0.00015   0.00010  -0.00002  -0.00059
 115        5PZ         0.00147  -0.00162  -0.00063  -0.00060   0.00133
 116        6PX        -0.00821   0.00478  -0.00033   0.00249  -0.00221
 117        6PY         0.00232  -0.00051  -0.00053  -0.00065  -0.00207
 118        6PZ         0.01097  -0.00811  -0.00279  -0.00103   0.00633
 119        7PX        -0.00802   0.00877   0.00639   0.00655  -0.00750
 120        7PY        -0.00158   0.00246  -0.00089  -0.00467  -0.00697
 121        7PZ         0.01372  -0.01221  -0.00604  -0.00715   0.01370
 122 6   H  1S          0.05686  -0.05458  -0.02056   0.02439   0.04132
 123        2S          0.09537  -0.08352  -0.02915   0.03414   0.07291
 124        3S          0.03206  -0.03551  -0.03045   0.02522   0.06034
 125        4S          0.00663  -0.00090  -0.01229   0.00157   0.01812
 126        5PX        -0.00106   0.00100   0.00037  -0.00063  -0.00074
 127        5PY         0.00023   0.00015   0.00010   0.00002  -0.00059
 128        5PZ        -0.00147   0.00162   0.00063  -0.00060  -0.00133
 129        6PX        -0.00821   0.00478  -0.00033  -0.00249  -0.00221
 130        6PY         0.00232  -0.00051  -0.00053   0.00065  -0.00207
 131        6PZ        -0.01097   0.00811   0.00279  -0.00103  -0.00633
 132        7PX        -0.00802   0.00877   0.00639  -0.00655  -0.00750
 133        7PY        -0.00158   0.00246  -0.00089   0.00467  -0.00697
 134        7PZ        -0.01372   0.01221   0.00604  -0.00715  -0.01370
 135 7   F  1S          0.02112   0.02301   0.01034  -0.01964   0.00487
 136        2S          0.03584   0.03911   0.01761  -0.03340   0.00824
 137        2PX         0.03806   0.04778  -0.01544  -0.13228  -0.03214
 138        2PY        -0.01851   0.02255  -0.08007  -0.00088   0.08345
 139        2PZ         0.03556   0.09515   0.09891  -0.07720   0.07432
 140        3S         -0.11145  -0.12413  -0.05668   0.10704  -0.02581
 141        3PX         0.05865   0.07444  -0.02310  -0.20361  -0.04873
 142        3PY        -0.02846   0.03447  -0.12211  -0.00176   0.12693
 143        3PZ         0.05479   0.14749   0.15253  -0.12013   0.11394
 144        4S         -0.10203  -0.11372  -0.06091   0.11663  -0.03200
 145        4PX         0.04157   0.05749  -0.02303  -0.15806  -0.04409
 146        4PY        -0.02083   0.02799  -0.10246   0.00071   0.10735
 147        4PZ         0.04001   0.11490   0.11719  -0.08493   0.09141
 148        5S         -0.00428   0.01077  -0.01426   0.01417   0.01388
 149        5PX        -0.00800  -0.00082  -0.00491  -0.00254   0.00731
 150        5PY         0.00746  -0.00215   0.00086  -0.00200  -0.00640
 151        5PZ        -0.00458  -0.00125   0.00256  -0.00334   0.00431
 152        6D 0        0.00046   0.00193   0.00224  -0.00097   0.00160
 153        6D+1        0.00141   0.00237   0.00110  -0.00363   0.00060
 154        6D-1       -0.00047   0.00042  -0.00122  -0.00004   0.00110
 155        6D+2        0.00059   0.00072  -0.00001  -0.00167  -0.00016
 156        6D-2       -0.00046   0.00042  -0.00092  -0.00007   0.00071
 157        7D 0        0.00222   0.00816   0.00828  -0.00135   0.00768
 158        7D+1        0.00627   0.01058   0.00397  -0.01264   0.00067
 159        7D-1       -0.00267   0.00211  -0.00763   0.00062   0.00661
 160        7D+2        0.00272   0.00304  -0.00204  -0.00740  -0.00222
 161        7D-2       -0.00178   0.00141  -0.00432   0.00065   0.00514
 162 8   F  1S          0.02800  -0.01843   0.00385   0.00000   0.01324
 163        2S          0.04749  -0.03131   0.00658   0.00000   0.02251
 164        2PX         0.03018  -0.05523  -0.02558   0.00000   0.12196
 165        2PY         0.05362  -0.04721   0.04489   0.00000   0.03060
 166        2PZ         0.00000   0.00000   0.00000   0.03331   0.00000
 167        3S         -0.14673   0.09811  -0.02147   0.00000  -0.07223
 168        3PX         0.04600  -0.08509  -0.03907   0.00000   0.18730
 169        3PY         0.08240  -0.07302   0.06740   0.00000   0.04886
 170        3PZ         0.00000   0.00000   0.00000   0.05078   0.00000
 171        4S         -0.13633   0.09912  -0.02652   0.00000  -0.07577
 172        4PX         0.03311  -0.06320  -0.03318   0.00000   0.15202
 173        4PY         0.05700  -0.05208   0.05726   0.00000   0.03381
 174        4PZ         0.00000   0.00000   0.00000   0.04263   0.00000
 175        5S         -0.01766   0.00986  -0.00130   0.00000  -0.00326
 176        5PX        -0.00415   0.00277  -0.00192   0.00000  -0.00455
 177        5PY        -0.01095   0.00184   0.00288   0.00000  -0.00153
 178        5PZ         0.00000   0.00000   0.00000  -0.00573   0.00000
 179        6D 0       -0.00104   0.00102  -0.00019   0.00000  -0.00130
 180        6D+1        0.00000   0.00000   0.00000   0.00039   0.00000
 181        6D-1        0.00000   0.00000   0.00000   0.00049   0.00000
 182        6D+2       -0.00077   0.00006  -0.00076   0.00000   0.00070
 183        6D-2        0.00146  -0.00190   0.00020   0.00000   0.00254
 184        7D 0       -0.00368   0.00409  -0.00192   0.00000  -0.00529
 185        7D+1        0.00000   0.00000   0.00000   0.00225   0.00000
 186        7D-1        0.00000   0.00000   0.00000   0.00340   0.00000
 187        7D+2       -0.00305  -0.00016  -0.00590   0.00000   0.00582
 188        7D-2        0.00626  -0.00751  -0.00050   0.00000   0.01192
                          16        17        18        19        20
                           O         O         O         O         O
     Eigenvalues --    -0.75418  -0.74079  -0.71532  -0.71375  -0.68533
   1 1   C  1S          0.00000   0.00130  -0.00201   0.00000  -0.00391
   2        2S          0.00000   0.00224  -0.00346   0.00000  -0.00703
   3        2PX         0.00000   0.01079  -0.03821   0.00000  -0.02095
   4        2PY         0.00000   0.00538  -0.02671   0.00000   0.01221
   5        2PZ        -0.01423   0.00000   0.00000  -0.05006   0.00000
   6        3S          0.00000  -0.00666   0.00997   0.00000   0.02493
   7        3PX         0.00000   0.02158  -0.05562   0.00000  -0.03003
   8        3PY         0.00000   0.00932  -0.03927   0.00000   0.01109
   9        3PZ        -0.02682   0.00000   0.00000  -0.07387   0.00000
  10        4S          0.00000   0.02129  -0.00476   0.00000  -0.02995
  11        4PX         0.00000  -0.01025  -0.04168   0.00000  -0.04155
  12        4PY         0.00000  -0.02267  -0.02164   0.00000   0.00579
  13        4PZ         0.01454   0.00000   0.00000  -0.05361   0.00000
  14        5S          0.00000   0.03354   0.02783   0.00000   0.12593
  15        5PX         0.00000   0.00129   0.03676   0.00000   0.03660
  16        5PY         0.00000  -0.00655   0.01075   0.00000  -0.03464
  17        5PZ        -0.02002   0.00000   0.00000   0.02698   0.00000
  18        6D 0        0.00000   0.00322   0.02036   0.00000   0.01011
  19        6D+1        0.00249   0.00000   0.00000   0.01985   0.00000
  20        6D-1       -0.01214   0.00000   0.00000   0.01250   0.00000
  21        6D+2        0.00000  -0.01350  -0.00334   0.00000   0.00846
  22        6D-2        0.00000   0.00226  -0.00925   0.00000   0.00667
  23        7D 0        0.00000   0.01585   0.04268   0.00000   0.02503
  24        7D+1        0.00609   0.00000   0.00000   0.03655   0.00000
  25        7D-1       -0.03349   0.00000   0.00000   0.04038   0.00000
  26        7D+2        0.00000  -0.03164  -0.02432   0.00000   0.01165
  27        7D-2        0.00000  -0.00126  -0.01020   0.00000   0.00965
  28 2   F  1S         -0.00062  -0.00059   0.00223  -0.00350   0.00018
  29        2S         -0.00103  -0.00099   0.00378  -0.00592   0.00031
  30        2PX        -0.01164   0.06394   0.14650  -0.04681   0.06752
  31        2PY        -0.08620  -0.00451  -0.01900   0.13359  -0.02321
  32        2PZ         0.01672   0.06175   0.03941   0.07181  -0.00555
  33        3S          0.00322   0.00315  -0.01310   0.02065  -0.00284
  34        3PX        -0.01846   0.09702   0.22417  -0.07329   0.10338
  35        3PY        -0.13110  -0.00640  -0.02935   0.20377  -0.03524
  36        3PZ         0.02607   0.09511   0.05818   0.11190  -0.01044
  37        4S          0.00527  -0.00023  -0.01962   0.03558  -0.00022
  38        4PX        -0.01313   0.07980   0.18645  -0.05668   0.09134
  39        4PY        -0.10887  -0.00769  -0.02309   0.16919  -0.03039
  40        4PZ         0.01852   0.07690   0.05255   0.08703  -0.00664
  41        5S         -0.01016   0.00239  -0.01751   0.03478  -0.01829
  42        5PX        -0.00823   0.00823   0.00412   0.00649  -0.00232
  43        5PY        -0.00326  -0.00048  -0.00111   0.01204  -0.00200
  44        5PZ         0.00310   0.00744   0.01198  -0.01318   0.00948
  45        6D 0       -0.00023  -0.00121  -0.00063  -0.00093   0.00024
  46        6D+1        0.00058  -0.00016  -0.00147   0.00164  -0.00078
  47        6D-1        0.00071  -0.00014   0.00021  -0.00113   0.00029
  48        6D+2       -0.00019   0.00031   0.00089  -0.00039   0.00051
  49        6D-2       -0.00072   0.00013  -0.00028   0.00105  -0.00012
  50        7D 0       -0.00112  -0.00542  -0.00355  -0.00469   0.00048
  51        7D+1        0.00115  -0.00087  -0.00754   0.00805  -0.00579
  52        7D-1        0.00434   0.00085   0.00110  -0.00655   0.00061
  53        7D+2       -0.00142   0.00136   0.00609  -0.00352   0.00376
  54        7D-2       -0.00380  -0.00081  -0.00077   0.00476  -0.00087
  55 3   F  1S          0.00000   0.00038  -0.00378   0.00000  -0.00040
  56        2S          0.00000   0.00061  -0.00640   0.00000  -0.00063
  57        2PX         0.00000  -0.10743  -0.03525   0.00000   0.13193
  58        2PY         0.00000   0.06507   0.14652   0.00000  -0.10265
  59        2PZ        -0.08132   0.00000   0.00000   0.16310   0.00000
  60        3S          0.00000  -0.00178   0.02241   0.00000   0.00051
  61        3PX         0.00000  -0.16437  -0.05163   0.00000   0.19992
  62        3PY         0.00000   0.09804   0.22596   0.00000  -0.15665
  63        3PZ        -0.12400   0.00000   0.00000   0.24805   0.00000
  64        4S          0.00000   0.00198   0.03617   0.00000   0.02066
  65        4PX         0.00000  -0.13721  -0.04685   0.00000   0.17556
  66        4PY         0.00000   0.08406   0.18397   0.00000  -0.14836
  67        4PZ        -0.10344   0.00000   0.00000   0.21048   0.00000
  68        5S          0.00000   0.00788   0.02855   0.00000   0.02806
  69        5PX         0.00000  -0.01053  -0.01696   0.00000   0.00451
  70        5PY         0.00000   0.00311  -0.00354   0.00000  -0.01956
  71        5PZ        -0.00731   0.00000   0.00000   0.01207   0.00000
  72        6D 0        0.00000  -0.00012   0.00126   0.00000   0.00019
  73        6D+1        0.00092   0.00000   0.00000  -0.00091   0.00000
  74        6D-1        0.00071   0.00000   0.00000  -0.00117   0.00000
  75        6D+2        0.00000   0.00103   0.00166   0.00000  -0.00085
  76        6D-2        0.00000   0.00083  -0.00128   0.00000  -0.00016
  77        7D 0        0.00000   0.00003   0.00528   0.00000  -0.00030
  78        7D+1        0.00298   0.00000   0.00000  -0.00579   0.00000
  79        7D-1        0.00442   0.00000   0.00000  -0.00727   0.00000
  80        7D+2        0.00000   0.00810   0.00895   0.00000  -0.01206
  81        7D-2        0.00000   0.00369  -0.00714   0.00000  -0.00229
  82 4   C  1S          0.00000   0.00535  -0.00233   0.00000   0.02066
  83        2S          0.00000   0.00833  -0.00359   0.00000   0.03446
  84        2PX         0.00000  -0.10459   0.05624   0.00000  -0.04328
  85        2PY         0.00000  -0.04400   0.02133   0.00000  -0.07200
  86        2PZ         0.11419   0.00000   0.00000   0.04502   0.00000
  87        3S          0.00000  -0.01635   0.00787   0.00000  -0.09007
  88        3PX         0.00000  -0.16937   0.09181   0.00000  -0.06680
  89        3PY         0.00000  -0.06771   0.03310   0.00000  -0.12046
  90        3PZ         0.18130   0.00000   0.00000   0.07061   0.00000
  91        4S          0.00000  -0.11878   0.01775   0.00000  -0.10462
  92        4PX         0.00000  -0.04916   0.03549   0.00000  -0.03482
  93        4PY         0.00000  -0.00760   0.01597   0.00000  -0.02952
  94        4PZ         0.08099   0.00000   0.00000   0.02716   0.00000
  95        5S          0.00000  -0.10199  -0.03427   0.00000  -0.13327
  96        5PX         0.00000   0.00132  -0.01923   0.00000   0.02441
  97        5PY         0.00000  -0.00053  -0.02594   0.00000  -0.03593
  98        5PZ         0.07148   0.00000   0.00000  -0.00425   0.00000
  99        6D 0        0.00000  -0.01187   0.00813   0.00000  -0.00828
 100        6D+1        0.00359   0.00000   0.00000   0.00365   0.00000
 101        6D-1       -0.00698   0.00000   0.00000  -0.00525   0.00000
 102        6D+2        0.00000  -0.00025   0.00121   0.00000  -0.01103
 103        6D-2        0.00000   0.01304  -0.01002   0.00000   0.01015
 104        7D 0        0.00000  -0.01543   0.00471   0.00000  -0.01317
 105        7D+1        0.00241   0.00000   0.00000  -0.01404   0.00000
[...]
 (Enter /Users/asuyarger/Applications/G16/g16/l103.exe)

 GradGradGradGradGradGradGradGradGradGradGradGradGradGradGradGradGradGrad
 Berny optimization.
 Red2BG is reusing G-inverse.
 Internal  Forces:  Max     0.000001920 RMS     0.000000691
 Search for a local minimum.
 Step number   1 out of a maximum of    2
 All quantities printed in internal units (Hartrees-Bohrs-Radians)
 Second derivative matrix not updated -- analytic derivatives used.
 ITU=  0
     Eigenvalues ---    0.00346   0.05807   0.08229   0.10978   0.11491
     Eigenvalues ---    0.16493   0.16855   0.23032   0.27364   0.29556
     Eigenvalues ---    0.32194   0.37823   0.37963   0.43015   0.45352
     Eigenvalues ---    0.46161   0.49098   0.64330
 Angle between quadratic step and forces=  46.45 degrees.
 Linear search not attempted -- first point.
 Iteration  1 RMS(Cart)=  0.00000261 RMS(Int)=  0.00000000
 Iteration  2 RMS(Cart)=  0.00000000 RMS(Int)=  0.00000000
 ITry= 1 IFail=0 DXMaxC= 6.78D-06 DCOld= 1.00D+10 DXMaxT= 3.00D-01 DXLimC= 3.00D+00 Rises=F
 ClnCor:  largest displacement from symmetrization is 5.26D-09 for atom     7.
 Variable       Old X    -DE/DX   Delta X   Delta X   Delta X     New X
                                 (Linear)    (Quad)   (Total)
    R1        2.47762  -0.00000   0.00000  -0.00000  -0.00000   2.47762
    R2        2.48843  -0.00000   0.00000  -0.00000  -0.00000   2.48842
    R3        2.85012  -0.00000   0.00000  -0.00000  -0.00000   2.85012
    R4        2.47762  -0.00000   0.00000  -0.00000  -0.00000   2.47762
    R5        2.03821  -0.00000   0.00000  -0.00000  -0.00000   2.03821
    R6        2.03821  -0.00000   0.00000  -0.00000  -0.00000   2.03821
    R7        2.54939  -0.00000   0.00000  -0.00000  -0.00000   2.54939
    A1        1.88627  -0.00000   0.00000   0.00000   0.00000   1.88627
    A2        1.95143   0.00000   0.00000  -0.00000  -0.00000   1.95143
    A3        1.88367  -0.00000   0.00000  -0.00000  -0.00000   1.88367
    A4        1.90259   0.00000   0.00000   0.00000   0.00000   1.90259
    A5        1.88627  -0.00000   0.00000   0.00000   0.00000   1.88627
    A6        1.95143   0.00000   0.00000  -0.00000  -0.00000   1.95143
    A7        1.90050   0.00000   0.00000   0.00000   0.00000   1.90050
    A8        1.90050   0.00000   0.00000   0.00000   0.00000   1.90050
    A9        1.90724   0.00000   0.00000   0.00000   0.00000   1.90724
   A10        1.93054  -0.00000   0.00000   0.00000   0.00000   1.93054
   A11        1.91242  -0.00000   0.00000  -0.00001  -0.00001   1.91242
   A12        1.91242  -0.00000   0.00000  -0.00001  -0.00001   1.91242
    D1       -3.13760  -0.00000   0.00000  -0.00001  -0.00001  -3.13761
    D2       -1.03122   0.00000   0.00000   0.00000   0.00000  -1.03121
    D3        1.05718  -0.00000   0.00000  -0.00000  -0.00000   1.05718
    D4       -1.05319  -0.00000   0.00000  -0.00000  -0.00000  -1.05320
    D5        1.05319   0.00000   0.00000   0.00000   0.00000   1.05320
    D6       -3.14159  -0.00000   0.00000  -0.00000  -0.00000   3.14159
    D7        1.03122  -0.00000   0.00000  -0.00000  -0.00000   1.03121
    D8        3.13760   0.00000   0.00000   0.00001   0.00001   3.13761
    D9       -1.05718   0.00000   0.00000   0.00000   0.00000  -1.05718
         Item               Value     Threshold  Converged?
 Maximum Force            0.000002     0.000015     YES
 RMS     Force            0.000001     0.000010     YES
 Maximum Displacement     0.000007     0.000060     YES
 RMS     Displacement     0.000003     0.000040     YES
 Predicted change in Energy=-2.156578D-11
 Optimization completed.
    -- Stationary point found.
                           ----------------------------
                           !   Optimized Parameters   !
                           ! (Angstroms and Degrees)  !
 --------------------------                            --------------------------
 ! Name  Definition              Value          Derivative Info.                !
 --------------------------------------------------------------------------------
 ! R1    R(1,2)                  1.3111         -DE/DX =    0.0                 !
 ! R2    R(1,3)                  1.3168         -DE/DX =    0.0                 !
 ! R3    R(1,4)                  1.5082         -DE/DX =    0.0                 !
 ! R4    R(1,7)                  1.3111         -DE/DX =    0.0                 !
 ! R5    R(4,5)                  1.0786         -DE/DX =    0.0                 !
 ! R6    R(4,6)                  1.0786         -DE/DX =    0.0                 !
 ! R7    R(4,8)                  1.3491         -DE/DX =    0.0                 !
 ! A1    A(2,1,3)              108.0754         -DE/DX =    0.0                 !
 ! A2    A(2,1,4)              111.8088         -DE/DX =    0.0                 !
 ! A3    A(2,1,7)              107.9262         -DE/DX =    0.0                 !
 ! A4    A(3,1,4)              109.0101         -DE/DX =    0.0                 !
 ! A5    A(3,1,7)              108.0754         -DE/DX =    0.0                 !
 ! A6    A(4,1,7)              111.8088         -DE/DX =    0.0                 !
 ! A7    A(1,4,5)              108.8905         -DE/DX =    0.0                 !
 ! A8    A(1,4,6)              108.8905         -DE/DX =    0.0                 !
 ! A9    A(1,4,8)              109.2767         -DE/DX =    0.0                 !
 ! A10   A(5,4,6)              110.6115         -DE/DX =    0.0                 !
 ! A11   A(5,4,8)              109.5737         -DE/DX =    0.0                 !
 ! A12   A(6,4,8)              109.5737         -DE/DX =    0.0                 !
 ! D1    D(2,1,4,5)           -179.7713         -DE/DX =    0.0                 !
 ! D2    D(2,1,4,6)            -59.0844         -DE/DX =    0.0                 !
 ! D3    D(2,1,4,8)             60.5722         -DE/DX =    0.0                 !
 ! D4    D(3,1,4,5)            -60.3434         -DE/DX =    0.0                 !
 ! D5    D(3,1,4,6)             60.3434         -DE/DX =    0.0                 !
 ! D6    D(3,1,4,8)            180.0            -DE/DX =    0.0                 !
 ! D7    D(7,1,4,5)             59.0844         -DE/DX =    0.0                 !
 ! D8    D(7,1,4,6)            179.7713         -DE/DX =    0.0                 !
 ! D9    D(7,1,4,8)            -60.5722         -DE/DX =    0.0                 !
 --------------------------------------------------------------------------------
 GradGradGradGradGradGradGradGradGradGradGradGradGradGradGradGradGradGrad

 Leave Link  103 at Fri Sep  6 11:30:40 2024, MaxMem=  1610612736 cpu:               0.2 elap:               0.0
 (Enter /Users/asuyarger/Applications/G16/g16/l9999.exe)

 ----------------------------------------------------------------------

 Electric dipole moment (input orientation):
 (Debye = 10**-18 statcoulomb cm , SI units = C m)
                  (au)            (Debye)         (10**-30 SI)
   Tot        0.882857D+00      0.224400D+01      0.748517D+01
   x         -0.422698D+00     -0.107439D+01     -0.358378D+01
   y          0.387503D+00      0.984934D+00      0.328539D+01
   z         -0.671271D+00     -0.170620D+01     -0.569127D+01

 Dipole polarizability, Alpha (input orientation).
 (esu units = cm**3 , SI units = C**2 m**2 J**-1)
 Alpha(0;0):
               (au)            (10**-24 esu)      (10**-40 SI)
   iso        0.254149D+02      0.376610D+01      0.419035D+01
   aniso      0.136848D+01      0.202787D+00      0.225631D+00
   xx         0.262565D+02      0.389081D+01      0.432911D+01
   yx         0.704179D-01      0.104349D-01      0.116104D-01
   yy         0.248588D+02      0.368369D+01      0.409866D+01
   zx        -0.121764D+00     -0.180435D-01     -0.200762D-01
   zy        -0.234384D+00     -0.347321D-01     -0.386447D-01
   zz         0.251294D+02      0.372380D+01      0.414329D+01

 First dipole hyperpolarizability, Beta (input orientation).
 ||, _|_  parallel and perpendicular components, (z) with respect to z axis,
 vector components x,y,z.  Values do not include the 1/n! factor of 1/2.
 (esu units = statvolt**-1 cm**4 , SI units = C**3 m**3 J**-2)
 Beta(0;0,0):
               (au)            (10**-30 esu)      (10**-50 SI)
   || (z)    -0.249941D+02     -0.215929D+00     -0.801400D-01
   _|_(z)    -0.833135D+01     -0.719764D-01     -0.267133D-01
   x         -0.104279D+03     -0.900887D+00     -0.334355D+00
   y          0.721393D+02      0.623227D+00      0.231305D+00
   z         -0.124970D+03     -0.107965D+01     -0.400700D+00
   ||         0.356066D+02      0.307613D+00      0.114168D+00
   xxx       -0.130218D+02     -0.112498D+00     -0.417527D-01
   xxy        0.322148D+01      0.278310D-01      0.103292D-01
   yxy       -0.117007D+02     -0.101085D+00     -0.375167D-01
   yyy        0.236670D+02      0.204465D+00      0.758850D-01
   xxz       -0.557842D+01     -0.481932D-01     -0.178864D-01
   yxz       -0.143898D+01     -0.124317D-01     -0.461389D-02
   yyz       -0.902034D+01     -0.779287D-01     -0.289225D-01
   zxz       -0.100370D+02     -0.867122D-01     -0.321824D-01
   zyz       -0.284205D+01     -0.245531D-01     -0.911264D-02
   zzz       -0.270580D+02     -0.233760D+00     -0.867577D-01

 ----------------------------------------------------------------------

 Dipole orientation:
     6         -1.29852903         -1.15110904          1.52314750
     9         -1.48803455         -3.14738999          0.06796142
     9         -3.46442266         -0.85366292          2.71171728
     6          0.78463957         -1.43719437          3.44714151
     1          0.85682025          0.24444002          4.59657166
     1          0.40081406         -3.07603001          4.59657166
     9         -0.94286256          0.82235273          0.06796142
     9          3.00918449         -1.74269517          2.23988662

 Electric dipole moment (dipole orientation):
 (Debye = 10**-18 statcoulomb cm , SI units = C m)
                  (au)            (Debye)         (10**-30 SI)
   Tot        0.882857D+00      0.224400D+01      0.748517D+01
   x          0.000000D+00      0.000000D+00      0.000000D+00
   y          0.000000D+00      0.000000D+00      0.000000D+00
   z          0.882857D+00      0.224400D+01      0.748517D+01

 Dipole polarizability, Alpha (dipole orientation).
 (esu units = cm**3 , SI units = C**2 m**2 J**-1)
 Alpha(0;0):
               (au)            (10**-24 esu)      (10**-40 SI)
   iso        0.254149D+02      0.376610D+01      0.419035D+01
   aniso      0.136848D+01      0.202787D+00      0.225631D+00
   xx         0.261211D+02      0.387074D+01      0.430678D+01
   yx        -0.191933D+00     -0.284415D-01     -0.316454D-01
   yy         0.247498D+02      0.366755D+01      0.408070D+01
   zx        -0.337530D+00     -0.500167D-01     -0.556511D-01
   zy         0.463536D-01      0.686889D-02      0.764267D-02
   zz         0.253739D+02      0.376002D+01      0.418358D+01

 First dipole hyperpolarizability, Beta (dipole orientation).
 ||, _|_  parallel and perpendicular components, (z) with respect to z axis,
 vector components x,y,z.  Values do not include the 1/n! factor of 1/2.
 (esu units = statvolt**-1 cm**4 , SI units = C**3 m**3 J**-2)
 Beta(0;0,0):
               (au)            (10**-30 esu)      (10**-50 SI)
   || (z)     0.353220D+02      0.305155D+00      0.113255D+00
   _|_(z)     0.117740D+02      0.101718D+00      0.377517D-01
   x         -0.222537D+02     -0.192255D+00     -0.713535D-01
   y          0.305615D+01      0.264027D-01      0.979911D-02
   z          0.176610D+03      0.152577D+01      0.566276D+00
   ||         0.356066D+02      0.307613D+00      0.114168D+00
   xxx       -0.468215D+01     -0.404501D-01     -0.150127D-01
   xxy        0.547687D-01      0.473159D-03      0.175608D-03
   yxy       -0.210880D+01     -0.182184D-01     -0.676158D-02
   yyy        0.877844D+00      0.758389D-02      0.281469D-02
   xxz        0.576506D+01      0.498056D-01      0.184849D-01
   yxz        0.225822D+01      0.195092D-01      0.724066D-02
   yyz        0.218984D+02      0.189185D+00      0.702143D-01
   zxz       -0.626964D+00     -0.541648D-02     -0.201027D-02
   zyz        0.861021D-01      0.743855D-03      0.276074D-03
   zzz        0.312065D+02      0.269600D+00      0.100059D+00

 ----------------------------------------------------------------------
 1\1\GINC-JEFFSMACSTUDIO\Freq\RHF\6-311++G(2d,3p)\C2H2F4\ROOT\06-Sep-20
 24\0\\#P Geom=AllCheck Guess=TCheck SCRF=Check GenChk RHF/6-311++G(2d,
 3p) Freq\\R134a HF 6-311++g(2d,3p) Opt Freq - Full - NBO\\0,1\C,-0.910
 8583522,0.8142208662,-0.0164838676\F,-0.5032830333,1.4050350207,1.0806
 982908\F,-2.2276759409,0.813284414,-0.0150425527\C,-0.4214378447,1.527
 5206918,-1.2519576982\H,-0.7856700837,1.0065597946,-2.1233103273\H,-0.
 78579181,2.5425721002,-1.2365430748\F,-0.5031375051,-0.4313235734,0.02
 05357783\F,0.9276179194,1.5316182707,-1.2588701277\\Version=EM64M-G16R
 evA.03\State=1-A'\HF=-474.8162829\RMSD=1.410e-09\RMSF=8.061e-07\ZeroPo
 int=0.0492629\Thermal=0.0544547\Dipole=-0.4226975,0.387503,-0.6712706\
 DipoleDeriv=1.7429588,-0.0223032,0.0386263,-0.0601924,1.729139,0.09993
 03,0.1042561,0.0999355,1.6137465,-0.387899,-0.0860793,-0.120041,-0.090
 3248,-0.4611107,-0.1742742,-0.1703464,-0.237462,-0.8902307,-1.0143813,
 -0.0035372,0.0060341,-0.0516304,-0.3504609,0.0225453,0.0893387,0.02255
 2,-0.3764921,1.019267,0.0239754,-0.0414429,0.0060476,0.3692425,0.03989
 78,-0.0103893,0.0399003,0.3231611,0.0125906,-0.0152377,0.0112132,-0.04
 79818,0.0314744,-0.0661843,-0.0500148,-0.0488854,-0.0320637,0.0125804,
 -0.0020811,0.0187984,0.0673147,-0.0659982,0.0074081,0.0165403,-0.00989
 59,0.0654191,-0.3879399,0.1470592,0.0145133,0.192751,-0.9611893,0.0513
 292,-0.0069725,0.1145114,-0.3901113,-0.9971766,-0.0417961,0.0722987,-0
 .0159839,-0.2910969,0.0193477,0.027588,0.0193443,-0.3134291\Polar=26.2
 56504,0.0704179,24.8587898,-0.1217639,-0.2343839,25.1294412\PolarDeriv
 =2.1855668,-0.0055624,-1.776564,0.0103366,0.367812,-2.2009473,-0.07218
 08,-1.3640925,1.8805944,0.006118,-0.1446128,-2.6833875,0.1257011,0.006
 0491,0.83914,-1.3708208,-2.1153671,0.5504965,1.1593362,0.6762093,0.366
 9897,1.5156223,0.3258039,1.0223957,0.3927735,0.5563316,1.6463318,0.363
 9778,1.8203778,1.2956598,0.7946768,0.1627759,0.7106519,0.9858924,1.511
 7836,4.9161404,-6.6560525,-0.2041843,-0.5074471,0.353046,-0.1801565,-0
 .2993511,-0.0772523,-1.4644051,-0.1082743,0.0341745,0.0637872,0.053346
 9,0.1332955,0.0341635,-0.0164723,-1.503831,0.0069066,0.1111068,-3.1837
 493,-0.3281084,3.7344755,0.5670852,0.0667965,3.6569017,-0.3711959,2.04
 25531,-3.4830831,0.1507621,0.1610898,3.1225103,0.6419451,0.150769,0.15
 24909,1.8680182,3.1174004,0.4736742,-1.1144945,-0.6844671,-0.9211611,-
 1.4533357,-0.3996988,-1.7453143,-0.9457723,-0.8764214,-1.3952238,-0.36
 7132,-1.4932296,-2.4078976,-1.4855716,-0.3175629,-1.6398325,-1.2806605
 ,-1.6982942,-5.7623052,-1.1150712,1.6011104,-1.8858648,-0.1339782,0.15
 71948,-0.7812084,1.7596471,-1.4764809,7.0947891,0.0287896,-0.6568169,1
 .216527,0.0762132,-0.0207967,-0.1156624,-0.6810712,0.7347544,-0.292493
 ,1.1598062,-1.6507879,1.1410014,0.1723425,-0.1209803,0.2487511,-0.8846
 983,1.1069683,-5.9602978,-0.1550109,0.3916635,-0.3832231,0.0572384,0.0
 462417,0.0239634,0.4358079,-1.4522796,0.2420684,7.5646583,0.5957907,-0
 .1514292,-1.0311191,-0.2167717,0.0987727,0.1986786,1.4755466,0.3251637
 ,-0.0616791,-0.142259,-0.2135363,-0.3434983,-0.0616397,0.0457211,1.546
 6653,-0.1049039,-0.2386884\HyperPolar=-13.0218237,3.2214758,-11.700716
 ,23.6670077,-5.5784208,-1.4389789,-9.0203431,-10.0370341,-2.8420505,-2
 7.0579933\Quadrupole=-2.4510259,0.9370876,1.5139383,-0.7602807,1.31649
 34,-0.4993026\PG=CS [SG(C2F2),X(H2F2)]\NImag=0\\0.66455233,0.01345896,
 0.69139421,-0.02331328,-0.04202715,0.73992417,-0.10700337,-0.02741715,
 -0.05866228,0.13298890,-0.02571531,-0.12773652,-0.08344882,0.05504021,
 0.17593860,-0.05112640,-0.07417217,-0.30838568,0.11078665,0.15531412,0
 .37135406,-0.33388587,-0.02336954,0.04044589,-0.05311066,-0.02238174,-
 0.04118681,0.48695433,-0.01692470,-0.09387355,0.00841652,-0.03038602,0
 .00637220,-0.01237378,0.00029611,0.09260360,0.02928247,0.00841563,-0.1
 0358630,-0.06339116,-0.01490957,-0.00632737,-0.00045907,0.00377705,0.0
 8824166,-0.08113896,-0.03377036,0.05849637,0.00474577,-0.00037042,-0.0
 2931903,-0.04140460,-0.01832660,0.03173767,0.62027129,-0.02232510,-0.1
 2961429,0.07014841,-0.00037508,0.00881016,-0.03381775,0.00509819,0.008
 38203,-0.00135874,-0.01448358,0.70961210,0.03867147,0.07014683,-0.2106
 1401,0.00293674,0.00701681,-0.05022528,-0.00883755,-0.00136196,0.00995
 509,0.02507184,0.04554339,0.65702181,0.00634077,0.00769049,0.00562326,
 -0.00006518,-0.00122027,0.00499838,0.00067728,0.00045631,-0.00023374,-
 0.08219057,-0.03924335,-0.06395317,0.10569831,0.00540573,0.00985934,0.
 01491094,-0.00042431,0.00028465,0.00692163,0.00110494,-0.00020481,-0.0
 0107517,-0.04406871,-0.13919325,-0.11848913,0.05022856,0.13367946,-0.0
 1282905,-0.02276179,-0.02299482,0.00131175,0.00233127,-0.00820783,0.00
 137515,0.00153687,0.00268441,-0.07112303,-0.11098003,-0.26142715,0.080
 70050,0.12513969,0.27268240,0.00634183,-0.00871454,-0.00384723,-0.0000
 2340,0.00054343,-0.00013934,0.00067755,-0.00002576,-0.00051203,-0.0822
 0974,0.07503689,0.00200477,0.00713169,-0.00952577,0.00132327,0.1057213
 3,0.00841025,-0.01817964,-0.00657156,-0.00042018,0.00252870,0.00006355
 ,-0.00174358,0.00216170,0.00017011,0.08365836,-0.33021330,-0.00066527,
 0.00361955,-0.01205942,0.00092188,-0.09503188,0.34628346,-0.01110005,0
 .03109913,0.00504310,0.00035931,-0.00212324,0.00199227,-0.00026893,-0.
 00244179,0.00031763,0.00259919,-0.00817489,-0.07038792,0.00891467,-0.0
 2891291,0.00410397,-0.00314148,0.00235897,0.06005538,-0.10701723,0.064
 53566,-0.00559566,0.01648134,-0.00687146,0.00094912,-0.05312411,0.0700
 8675,-0.00538860,0.00474386,-0.00235219,0.00179342,-0.00002337,-0.0001
 0111,0.00054322,-0.00006495,-0.00092382,0.00102279,0.13301719,0.057157
 96,-0.33145704,0.04347076,0.00262693,-0.06706992,-0.04257184,0.0468551
 0,-0.01495273,-0.00004983,0.02558180,-0.04706697,-0.00154988,-0.000151
 27,0.00123445,0.00081090,-0.00371875,-0.00207806,0.00828544,-0.1235018
 2,0.45697613,-0.00330010,0.03419489,-0.10465132,0.00643448,-0.06489899
 ,-0.00501395,-0.00121690,-0.00258353,0.01501102,-0.01434469,0.03928084
 ,0.00565376,-0.00054035,-0.00137601,0.00328649,0.00355611,0.00369557,-
 0.00584536,0.00773688,-0.00698573,0.09028824,-0.04818949,0.00758647,-0
 .01314707,0.00598662,0.00097556,0.00503743,-0.00678392,-0.00517608,0.0
 0896447,-0.34281704,-0.00135578,0.00231248,-0.03756893,-0.00261934,-0.
 00130180,-0.03757431,0.00243130,0.00161450,0.00598726,-0.00484996,0.00
 167457,0.46095980,-0.01946780,-0.00039250,-0.00489909,0.00135559,0.000
 87212,0.00063625,-0.00585948,-0.00048844,0.00503053,0.00177952,-0.0807
 1649,-0.00064080,-0.02138001,0.00639958,0.00300120,0.04143638,0.011556
 55,-0.00009071,-0.00087201,0.00441414,-0.00132704,0.00300782,0.0583550
 4,0.03371494,-0.00489538,0.00526487,0.00022452,0.00071843,0.00481378,0
 .01014823,0.00503062,-0.00629615,-0.00311833,-0.00064123,-0.07997630,-
 0.03550954,0.00288096,0.00987253,0.00075593,0.00002676,0.00472093,-0.0
 0106118,-0.00140982,0.00127111,-0.00515457,-0.00171034,0.06032924\\0.0
 0000063,-0.00000018,0.00000031,0.00000030,0.00000050,0.00000063,-0.000
 00192,0.00000002,-0.00000003,0.00000127,0.00000082,-0.00000142,-0.0000
 0112,-0.00000021,0.,-0.00000112,0.00000011,0.00000017,0.00000030,-0.00
 000080,-0.00000012,0.00000166,-0.00000027,0.00000046\\\@


 The most important thing in communication is to hear what isn't being said.
 -- Peter F. Drucker
 Job cpu time:       0 days  0 hours  0 minutes 13.1 seconds.
 Elapsed time:       0 days  0 hours  0 minutes 12.1 seconds.
 File lengths (MBytes):  RWF=     29 Int=      0 D2E=      0 Chk=      4 Scr=      1
 Normal termination of Gaussian 16 at Fri Sep  6 11:30:40 2024.
