 Entering Gaussian System, Link 0=g16
 Input=/Users/asuyarger/Downloads/r152a_DFT_B3LPY_6311pp2d3p_Opt_Freq_Full_NBO_Raman.gjf
 Output=/Users/asuyarger/Downloads/r152a_DFT_B3LPY_6311pp2d3p_Opt_Freq_Full_NBO_Raman.log
 Initial command:
 /Users/asuyarger/Applications/G16/g16/l1.exe "/Users/asuyarger/Applications/G16/scratch/Gau-91273.inp" -scrdir="/Users/asuyarger/Applications/G16/scratch/"
 Entering Link 1 = /Users/asuyarger/Applications/G16/g16/l1.exe PID=     91274.
  
 Copyright (c) 1988,1990,1992,1993,1995,1998,2003,2009,2016,
            Gaussian, Inc.  All Rights Reserved.
  
 This is part of the Gaussian(R) 16 program.  It is based on
 the Gaussian(R) 09 system (copyright 2009, Gaussian, Inc.),
 the Gaussian(R) 03 system (copyright 2003, Gaussian, Inc.),
 the Gaussian(R) 98 system (copyright 1998, Gaussian, Inc.),
 the Gaussian(R) 94 system (copyright 1995, Gaussian, Inc.),
 the Gaussian 92(TM) system (copyright 1992, Gaussian, Inc.),
 the Gaussian 90(TM) system (copyright 1990, Gaussian, Inc.),
 the Gaussian 88(TM) system (copyright 1988, Gaussian, Inc.),
 the Gaussian 86(TM) system (copyright 1986, Carnegie Mellon
 University), and the Gaussian 82(TM) system (copyright 1983,
 Carnegie Mellon University). Gaussian is a federally registered
 trademark of Gaussian, Inc.
  
 This software contains proprietary and confidential information,
 including trade secrets, belonging to Gaussian, Inc.
  
 This software is provided under written license and may be
 used, copied, transmitted, or stored only in accord with that
 written license.
  
 The following legend is applicable only to US Government
 contracts under FAR:
  
                    RESTRICTED RIGHTS LEGEND
  
 Use, reproduction and disclosure by the US Government is
 subject to restrictions as set forth in subparagraphs (a)
 and (c) of the Commercial Computer Software - Restricted
 Rights clause in FAR 52.227-19.
  
 Gaussian, Inc.
 340 Quinnipiac St., Bldg. 40, Wallingford CT 06492
  
  
 ---------------------------------------------------------------
 Warning -- This program may not be used in any manner that
 competes with the business of Gaussian, Inc. or will provide
 assistance to any competitor of Gaussian, Inc.  The licensee
 of this program is prohibited from giving any competitor of
 Gaussian, Inc. access to this program.  By using this program,
 the user acknowledges that Gaussian, Inc. is engaged in the
 business of creating and licensing software in the field of
 computational chemistry and represents and warrants to the
 licensee that it is not a competitor of Gaussian, Inc. and that
 it will not use this program in any manner prohibited above.
 ---------------------------------------------------------------
  

 Cite this work as:
 Gaussian 16, Revision A.03,
 M. J. Frisch, G. W. Trucks, H. B. Schlegel, G. E. Scuseria, 
 M. A. Robb, J. R. Cheeseman, G. Scalmani, V. Barone, 
 G. A. Petersson, H. Nakatsuji, X. Li, M. Caricato, A. V. Marenich, 
 J. Bloino, B. G. Janesko, R. Gomperts, B. Mennucci, H. P. Hratchian, 
 J. V. Ortiz, A. F. Izmaylov, J. L. Sonnenberg, D. Williams-Young, 
 F. Ding, F. Lipparini, F. Egidi, J. Goings, B. Peng, A. Petrone, 
 T. Henderson, D. Ranasinghe, V. G. Zakrzewski, J. Gao, N. Rega, 
 G. Zheng, W. Liang, M. Hada, M. Ehara, K. Toyota, R. Fukuda, 
 J. Hasegawa, M. Ishida, T. Nakajima, Y. Honda, O. Kitao, H. Nakai, 
 T. Vreven, K. Throssell, J. A. Montgomery, Jr., J. E. Peralta, 
 F. Ogliaro, M. J. Bearpark, J. J. Heyd, E. N. Brothers, K. N. Kudin, 
 V. N. Staroverov, T. A. Keith, R. Kobayashi, J. Normand, 
 K. Raghavachari, A. P. Rendell, J. C. Burant, S. S. Iyengar, 
 J. Tomasi, M. Cossi, J. M. Millam, M. Klene, C. Adamo, R. Cammi, 
 J. W. Ochterski, R. L. Martin, K. Morokuma, O. Farkas, 
 J. B. Foresman, and D. J. Fox, Gaussian, Inc., Wallingford CT, 2016.
 
 ******************************************
 Gaussian 16:  EM64M-G16RevA.03 25-Dec-2016
                 6-Sep-2024 
 ******************************************
 %nprocshared=8
 Will use up to    8 processors via shared memory.
 %mem=8GB
 %chk=r152a_DFT_B3LPY_6311pp2d3p_Opt_Freq_Full_NBO_Raman.chk
 ----------------------------------------------------------------------
 #p opt=tight freq=raman b3lyp/6-311++g(2d,3p) guess=save pop=(hirshfel
 d,full,nbo) geom=connectivity polar
 ----------------------------------------------------------------------
 1/7=10,18=20,19=15,26=3,38=1,57=2/1,3;
 2/9=110,12=2,17=6,18=5,40=1/2;
 3/5=4,6=6,7=1512,11=2,25=1,30=1,71=1,74=-5/1,2,3;
 4//1;
 5/5=2,38=5,98=1/2;
 6/7=3,28=1,40=1,79=1/1,7;
 7//1,2,3,16;
 1/7=10,18=20,19=15,26=3/3(2);
 2/9=110/2;
 99//99;
 2/9=110/2;
 3/5=4,6=6,7=1512,11=2,25=1,30=1,71=1,74=-5/1,2,3;
 4/5=5,16=3,69=1/1;
 5/5=2,38=5,98=1/2;
 7//1,2,3,16;
 1/7=10,18=20,19=15,26=3/3(-5);
 2/9=110/2;
 6/7=3,19=2,28=1,40=1,79=1/1,7;
 99/9=1/99;
 Leave Link    1 at Fri Sep  6 14:15:34 2024, MaxMem=  1073741824 cpu:               0.2 elap:               0.0
 (Enter /Users/asuyarger/Applications/G16/g16/l101.exe)
 ----------------------------------------
 r152a HF 6-311++g(2d,3p) Opt Freq - Full
 ----------------------------------------
 Symbolic Z-matrix:
 Charge =  0 Multiplicity = 1
 C                     0.33216   0.19387   0. 
 H                     1.29537   0.75203   0. 
 C                    -0.91694   1.04889   0. 
 H                    -0.9613    1.69826   0.88584 
 H                    -0.9613    1.69826  -0.88584 
 H                    -1.84286   0.45179   0. 
 F                     0.33216  -0.66983  -1.05204 
 F                     0.33216  -0.66983   1.05204 
 
 ITRead=  0  0  0  0  0  0  0  0
 MicOpt= -1 -1 -1 -1 -1 -1 -1 -1
 NAtoms=      8 NQM=        8 NQMF=       0 NMMI=      0 NMMIF=      0
                NMic=       0 NMicF=      0.
                    Isotopes and Nuclear Properties:
 (Nuclear quadrupole moments (NQMom) in fm**2, nuclear magnetic moments (NMagM)
  in nuclear magnetons)

  Atom         1           2           3           4           5           6           7           8
 IAtWgt=          12           1          12           1           1           1          19          19
 AtmWgt=  12.0000000   1.0078250  12.0000000   1.0078250   1.0078250   1.0078250  18.9984033  18.9984033
 NucSpn=           0           1           0           1           1           1           1           1
 AtZEff=  -0.0000000  -0.0000000  -0.0000000  -0.0000000  -0.0000000  -0.0000000  -0.0000000  -0.0000000
 NQMom=    0.0000000   0.0000000   0.0000000   0.0000000   0.0000000   0.0000000   0.0000000   0.0000000
 NMagM=    0.0000000   2.7928460   0.0000000   2.7928460   2.7928460   2.7928460   2.6288670   2.6288670
 AtZNuc=   6.0000000   1.0000000   6.0000000   1.0000000   1.0000000   1.0000000   9.0000000   9.0000000
 Leave Link  101 at Fri Sep  6 14:15:34 2024, MaxMem=  1073741824 cpu:               1.2 elap:               0.2
 (Enter /Users/asuyarger/Applications/G16/g16/l103.exe)

 GradGradGradGradGradGradGradGradGradGradGradGradGradGradGradGradGradGrad
 Berny optimization.
 Initialization pass.
                           ----------------------------
                           !    Initial Parameters    !
                           ! (Angstroms and Degrees)  !
 --------------------------                            --------------------------
 ! Name  Definition              Value          Derivative Info.                !
 --------------------------------------------------------------------------------
 ! R1    R(1,2)                  1.1133         estimate D2E/DX2                !
 ! R2    R(1,3)                  1.5137         estimate D2E/DX2                !
 ! R3    R(1,7)                  1.3612         estimate D2E/DX2                !
 ! R4    R(1,8)                  1.3612         estimate D2E/DX2                !
 ! R5    R(3,4)                  1.0993         estimate D2E/DX2                !
 ! R6    R(3,5)                  1.0993         estimate D2E/DX2                !
 ! R7    R(3,6)                  1.1018         estimate D2E/DX2                !
 ! A1    A(2,1,3)              115.5166         estimate D2E/DX2                !
 ! A2    A(2,1,7)              108.5504         estimate D2E/DX2                !
 ! A3    A(2,1,8)              108.5504         estimate D2E/DX2                !
 ! A4    A(3,1,7)              111.0029         estimate D2E/DX2                !
 ! A5    A(3,1,8)              111.0029         estimate D2E/DX2                !
 ! A6    A(7,1,8)              101.2302         estimate D2E/DX2                !
 ! A7    A(1,3,4)              111.5297         estimate D2E/DX2                !
 ! A8    A(1,3,5)              111.5297         estimate D2E/DX2                !
 ! A9    A(1,3,6)              112.7912         estimate D2E/DX2                !
 ! A10   A(4,3,5)              107.3852         estimate D2E/DX2                !
 ! A11   A(4,3,6)              106.6329         estimate D2E/DX2                !
 ! A12   A(5,3,6)              106.6329         estimate D2E/DX2                !
 ! D1    D(2,1,3,4)            -60.0309         estimate D2E/DX2                !
 ! D2    D(2,1,3,5)             60.0309         estimate D2E/DX2                !
 ! D3    D(2,1,3,6)            180.0            estimate D2E/DX2                !
 ! D4    D(7,1,3,4)            175.8532         estimate D2E/DX2                !
 ! D5    D(7,1,3,5)            -64.085          estimate D2E/DX2                !
 ! D6    D(7,1,3,6)             55.8841         estimate D2E/DX2                !
 ! D7    D(8,1,3,4)             64.085          estimate D2E/DX2                !
 ! D8    D(8,1,3,5)           -175.8532         estimate D2E/DX2                !
 ! D9    D(8,1,3,6)            -55.8841         estimate D2E/DX2                !
 --------------------------------------------------------------------------------
 Trust Radius=3.00D-01 FncErr=1.00D-07 GrdErr=1.00D-06 EigMax=2.50D+02 EigMin=1.00D-04
 Number of steps in this run=     38 maximum allowed number of steps=    100.
 GradGradGradGradGradGradGradGradGradGradGradGradGradGradGradGradGradGrad

 Leave Link  103 at Fri Sep  6 14:15:34 2024, MaxMem=  1073741824 cpu:               0.1 elap:               0.0
 (Enter /Users/asuyarger/Applications/G16/g16/l202.exe)
                          Input orientation:                          
 ---------------------------------------------------------------------
 Center     Atomic      Atomic             Coordinates (Angstroms)
 Number     Number       Type             X           Y           Z
 ---------------------------------------------------------------------
      1          6           0        0.332155    0.193867    0.000000
      2          1           0        1.295371    0.752027    0.000000
      3          6           0       -0.916937    1.048887    0.000000
      4          1           0       -0.961298    1.698262    0.885837
      5          1           0       -0.961298    1.698262   -0.885837
      6          1           0       -1.842860    0.451790    0.000000
      7          9           0        0.332155   -0.669826   -1.052042
      8          9           0        0.332155   -0.669826    1.052042
 ---------------------------------------------------------------------
                    Distance matrix (angstroms):
                    1          2          3          4          5
     1  C    0.000000
     2  H    1.113251   0.000000
     3  C    1.513701   2.232136   0.000000
     4  H    2.172771   2.602426   1.099256   0.000000
     5  H    2.172771   2.602426   1.099256   1.771674   0.000000
     6  H    2.190254   3.152560   1.101752   1.765092   1.765092
     7  F    1.361161   2.014012   2.370864   3.322083   2.703421
     8  F    1.361161   2.014012   2.370864   2.703421   3.322083
                    6          7          8
     6  H    0.000000
     7  F    2.663739   0.000000
     8  F    2.663739   2.104084   0.000000
 Stoichiometry    C2H4F2
 Framework group  CS[SG(C2H2),X(H2F2)]
 Deg. of freedom    11
 Full point group                 CS      NOp   2
 Largest Abelian subgroup         CS      NOp   2
 Largest concise Abelian subgroup CS      NOp   2
                         Standard orientation:                         
 ---------------------------------------------------------------------
 Center     Atomic      Atomic             Coordinates (Angstroms)
 Number     Number       Type             X           Y           Z
 ---------------------------------------------------------------------
      1          6           0        0.332155    0.193867    0.000000
      2          1           0        1.295371    0.752027    0.000000
      3          6           0       -0.916937    1.048887   -0.000000
      4          1           0       -0.961298    1.698262    0.885837
      5          1           0       -0.961298    1.698262   -0.885837
      6          1           0       -1.842860    0.451790   -0.000000
      7          9           0        0.332155   -0.669826   -1.052042
      8          9           0        0.332155   -0.669826    1.052042
 ---------------------------------------------------------------------
 Rotational constants (GHZ):          10.1054317           8.5372046           5.2393056
 Leave Link  202 at Fri Sep  6 14:15:34 2024, MaxMem=  1073741824 cpu:               0.0 elap:               0.0
 (Enter /Users/asuyarger/Applications/G16/g16/l301.exe)
 Standard basis: 6-311++G(2d,3p) (5D, 7F)
 Ernie: Thresh=  0.10000D-02 Tol=  0.10000D-05 Strict=F.
 There are   104 symmetry adapted cartesian basis functions of A'  symmetry.
 There are    64 symmetry adapted cartesian basis functions of A"  symmetry.
 There are    98 symmetry adapted basis functions of A'  symmetry.
 There are    62 symmetry adapted basis functions of A"  symmetry.
   160 basis functions,   228 primitive gaussians,   168 cartesian basis functions
    17 alpha electrons       17 beta electrons
       nuclear repulsion energy       132.5235672867 Hartrees.
 IExCor=  402 DFT=T Ex+Corr=B3LYP ExCW=0 ScaHFX=  0.200000
 ScaDFX=  0.800000  0.720000  1.000000  0.810000 ScalE2=  1.000000  1.000000
 IRadAn=      5 IRanWt=     -1 IRanGd=            0 ICorTp=0 IEmpDi=  4
 NAtoms=    8 NActive=    8 NUniq=    6 SFac= 1.78D+00 NAtFMM=   60 NAOKFM=F Big=F
 Integral buffers will be    131072 words long.
 Raffenetti 2 integral format.
 Two-electron integral symmetry is turned on.
 Leave Link  301 at Fri Sep  6 14:15:34 2024, MaxMem=  1073741824 cpu:               0.2 elap:               0.0
 (Enter /Users/asuyarger/Applications/G16/g16/l302.exe)
 NPDir=0 NMtPBC=     1 NCelOv=     1 NCel=       1 NClECP=     1 NCelD=      1
         NCelK=      1 NCelE2=     1 NClLst=     1 CellRange=     0.0.
 One-electron integrals computed using PRISM.
 One-electron integral symmetry used in STVInt
 NBasis=   160 RedAO= T EigKep=  9.13D-05  NBF=    98    62
 NBsUse=   160 1.00D-06 EigRej= -1.00D+00 NBFU=    98    62
 Precomputing XC quadrature grid using
 IXCGrd= 4 IRadAn=           5 IRanWt=          -1 IRanGd=           0 AccXCQ= 0.00D+00.
 Generated NRdTot=       0 NPtTot=           0 NUsed=           0 NTot=          32
 NSgBfM=   168   168   168   168   168 MxSgAt=     8 MxSgA2=     8.
 Leave Link  302 at Fri Sep  6 14:15:34 2024, MaxMem=  1073741824 cpu:               0.8 elap:               0.1
 (Enter /Users/asuyarger/Applications/G16/g16/l303.exe)
 DipDrv:  MaxL=1.
 Leave Link  303 at Fri Sep  6 14:15:34 2024, MaxMem=  1073741824 cpu:               0.1 elap:               0.0
 (Enter /Users/asuyarger/Applications/G16/g16/l401.exe)
 ExpMin= 3.60D-02 ExpMax= 1.14D+04 ExpMxC= 1.72D+03 IAcc=3 IRadAn=         5 AccDes= 0.00D+00
 Harris functional with IExCor=  402 and IRadAn=       5 diagonalized for initial guess.
 HarFok:  IExCor=  402 AccDes= 0.00D+00 IRadAn=         5 IDoV= 1 UseB2=F ITyADJ=14
 ICtDFT=  3500011 ScaDFX=  1.000000  1.000000  1.000000  1.000000
 FoFCou: FMM=F IPFlag=           0 FMFlag=      100000 FMFlg1=           0
         NFxFlg=           0 DoJE=T BraDBF=F KetDBF=T FulRan=T
         wScrn=  0.000000 ICntrl=       500 IOpCl=  0 I1Cent=   200000004 NGrid=           0
         NMat0=    1 NMatS0=      1 NMatT0=    0 NMatD0=    1 NMtDS0=    0 NMtDT0=    0
 Petite list used in FoFCou.
 Harris En= -278.405362816357    
 JPrj=0 DoOrth=F DoCkMO=F.
 Initial guess orbital symmetries:
       Occupied  (A') (A") (A') (A') (A') (A") (A') (A') (A') (A")
                 (A') (A") (A') (A') (A") (A") (A')
       Virtual   (A') (A') (A") (A") (A') (A') (A') (A') (A") (A')
                 (A') (A") (A') (A") (A') (A') (A') (A') (A") (A')
                 (A') (A") (A') (A") (A') (A") (A') (A') (A") (A')
                 (A") (A') (A') (A") (A') (A') (A") (A") (A') (A')
                 (A') (A") (A') (A') (A") (A') (A") (A') (A') (A')
                 (A") (A') (A') (A") (A') (A") (A') (A') (A") (A')
                 (A') (A') (A") (A") (A') (A') (A") (A") (A") (A')
                 (A') (A") (A") (A') (A") (A') (A") (A') (A') (A")
                 (A') (A") (A') (A') (A") (A') (A") (A') (A') (A")
                 (A') (A") (A') (A') (A') (A') (A') (A") (A") (A')
                 (A') (A") (A') (A") (A') (A') (A") (A') (A') (A")
                 (A') (A') (A") (A") (A') (A') (A") (A") (A') (A")
                 (A') (A") (A') (A") (A') (A') (A') (A") (A') (A")
                 (A") (A') (A') (A") (A') (A") (A') (A') (A") (A')
                 (A') (A") (A')
 The electronic state of the initial guess is 1-A'.
 Leave Link  401 at Fri Sep  6 14:15:35 2024, MaxMem=  1073741824 cpu:               1.6 elap:               0.2
 (Enter /Users/asuyarger/Applications/G16/g16/l502.exe)
 Keep R1 ints in memory in symmetry-blocked form, NReq=124594963.
 FoFCou: FMM=F IPFlag=           0 FMFlag=           0 FMFlg1=           0
         NFxFlg=           0 DoJE=F BraDBF=F KetDBF=F FulRan=T
         wScrn=  0.000000 ICntrl=       600 IOpCl=  0 I1Cent=           0 NGrid=           0
         NMat0=    1 NMatS0=  12880 NMatT0=    0 NMatD0=    1 NMtDS0=    0 NMtDT0=    0
 Petite list used in FoFCou.
 Closed shell SCF:
 Using DIIS extrapolation, IDIIS=  1040.
 NGot=  1073741824 LenX=  1032042104 LenY=  1032013439
 Requested convergence on RMS density matrix=1.00D-08 within 128 cycles.
 Requested convergence on MAX density matrix=1.00D-06.
 Requested convergence on             energy=1.00D-06.
 No special actions if energy rises.

 Cycle   1  Pass 1  IDiag  1:
 E= -278.316883556660    
 DIIS: error= 2.41D-02 at cycle   1 NSaved=   1.
 NSaved= 1 IEnMin= 1 EnMin= -278.316883556660     IErMin= 1 ErrMin= 2.41D-02
 ErrMax= 2.41D-02  0.00D+00 EMaxC= 1.00D-01 BMatC= 1.21D-01 BMatP= 1.21D-01
 IDIUse=3 WtCom= 7.59D-01 WtEn= 2.41D-01
 Coeff-Com:  0.100D+01
 Coeff-En:   0.100D+01
 Coeff:      0.100D+01
 Gap=     0.311 Goal=   None    Shift=    0.000
 GapD=    0.311 DampG=1.000 DampE=0.500 DampFc=0.5000 IDamp=-1.
 Damping current iteration by 5.00D-01
 RMSDP=2.42D-03 MaxDP=1.35D-01              OVMax= 1.59D-01

 Cycle   2  Pass 1  IDiag  1:
 E= -278.356414372066     Delta-E=       -0.039530815406 Rises=F Damp=T
 DIIS: error= 3.70D-03 at cycle   2 NSaved=   2.
 NSaved= 2 IEnMin= 2 EnMin= -278.356414372066     IErMin= 2 ErrMin= 3.70D-03
 ErrMax= 3.70D-03  0.00D+00 EMaxC= 1.00D-01 BMatC= 5.38D-03 BMatP= 1.21D-01
 IDIUse=3 WtCom= 9.63D-01 WtEn= 3.70D-02
 Coeff-Com:  0.779D-01 0.922D+00
 Coeff-En:   0.148D+00 0.852D+00
 Coeff:      0.805D-01 0.919D+00
 Gap=     0.349 Goal=   None    Shift=    0.000
 RMSDP=4.31D-04 MaxDP=1.47D-02 DE=-3.95D-02 OVMax= 7.71D-02

 Cycle   3  Pass 1  IDiag  1:
 E= -278.405940778037     Delta-E=       -0.049526405971 Rises=F Damp=F
 DIIS: error= 2.66D-03 at cycle   3 NSaved=   3.
 NSaved= 3 IEnMin= 3 EnMin= -278.405940778037     IErMin= 3 ErrMin= 2.66D-03
 ErrMax= 2.66D-03  0.00D+00 EMaxC= 1.00D-01 BMatC= 2.05D-03 BMatP= 5.38D-03
 IDIUse=3 WtCom= 9.73D-01 WtEn= 2.66D-02
 Coeff-Com: -0.118D-01 0.346D+00 0.665D+00
 Coeff-En:   0.000D+00 0.000D+00 0.100D+01
 Coeff:     -0.115D-01 0.337D+00 0.674D+00
 Gap=     0.343 Goal=   None    Shift=    0.000
 RMSDP=2.03D-04 MaxDP=7.11D-03 DE=-4.95D-02 OVMax= 1.20D-02

 Cycle   4  Pass 1  IDiag  1:
 E= -278.406714791005     Delta-E=       -0.000774012968 Rises=F Damp=F
 DIIS: error= 1.92D-03 at cycle   4 NSaved=   4.
 NSaved= 4 IEnMin= 4 EnMin= -278.406714791005     IErMin= 4 ErrMin= 1.92D-03
 ErrMax= 1.92D-03  0.00D+00 EMaxC= 1.00D-01 BMatC= 6.89D-04 BMatP= 2.05D-03
 IDIUse=3 WtCom= 9.81D-01 WtEn= 1.92D-02
 Coeff-Com: -0.154D-01 0.809D-01 0.394D+00 0.540D+00
 Coeff-En:   0.000D+00 0.000D+00 0.287D+00 0.713D+00
 Coeff:     -0.151D-01 0.794D-01 0.392D+00 0.544D+00
 Gap=     0.343 Goal=   None    Shift=    0.000
 RMSDP=8.68D-05 MaxDP=4.18D-03 DE=-7.74D-04 OVMax= 4.57D-03

 Cycle   5  Pass 1  IDiag  1:
 E= -278.407218033615     Delta-E=       -0.000503242609 Rises=F Damp=F
 DIIS: error= 1.58D-04 at cycle   5 NSaved=   5.
 NSaved= 5 IEnMin= 5 EnMin= -278.407218033615     IErMin= 5 ErrMin= 1.58D-04
 ErrMax= 1.58D-04  0.00D+00 EMaxC= 1.00D-01 BMatC= 6.32D-06 BMatP= 6.89D-04
 IDIUse=3 WtCom= 9.98D-01 WtEn= 1.58D-03
 Coeff-Com: -0.339D-02 0.525D-02 0.837D-01 0.161D+00 0.753D+00
 Coeff-En:   0.000D+00 0.000D+00 0.000D+00 0.000D+00 0.100D+01
 Coeff:     -0.338D-02 0.524D-02 0.836D-01 0.161D+00 0.753D+00
 Gap=     0.343 Goal=   None    Shift=    0.000
 RMSDP=1.15D-05 MaxDP=3.33D-04 DE=-5.03D-04 OVMax= 5.11D-04

 Cycle   6  Pass 1  IDiag  1:
 E= -278.407222443531     Delta-E=       -0.000004409917 Rises=F Damp=F
 DIIS: error= 2.62D-05 at cycle   6 NSaved=   6.
 NSaved= 6 IEnMin= 6 EnMin= -278.407222443531     IErMin= 6 ErrMin= 2.62D-05
 ErrMax= 2.62D-05  0.00D+00 EMaxC= 1.00D-01 BMatC= 1.35D-07 BMatP= 6.32D-06
 IDIUse=1 WtCom= 1.00D+00 WtEn= 0.00D+00
 Coeff-Com: -0.870D-03 0.461D-03 0.224D-01 0.478D-01 0.244D+00 0.686D+00
 Coeff:     -0.870D-03 0.461D-03 0.224D-01 0.478D-01 0.244D+00 0.686D+00
 Gap=     0.343 Goal=   None    Shift=    0.000
 RMSDP=1.88D-06 MaxDP=9.17D-05 DE=-4.41D-06 OVMax= 9.00D-05

 Cycle   7  Pass 1  IDiag  1:
 E= -278.407222543231     Delta-E=       -0.000000099700 Rises=F Damp=F
 DIIS: error= 9.17D-06 at cycle   7 NSaved=   7.
 NSaved= 7 IEnMin= 7 EnMin= -278.407222543231     IErMin= 7 ErrMin= 9.17D-06
 ErrMax= 9.17D-06  0.00D+00 EMaxC= 1.00D-01 BMatC= 1.35D-08 BMatP= 1.35D-07
 IDIUse=1 WtCom= 1.00D+00 WtEn= 0.00D+00
 Coeff-Com: -0.610D-04-0.229D-03 0.260D-02 0.680D-02 0.375D-01 0.253D+00
 Coeff-Com:  0.700D+00
 Coeff:     -0.610D-04-0.229D-03 0.260D-02 0.680D-02 0.375D-01 0.253D+00
 Coeff:      0.700D+00
 Gap=     0.343 Goal=   None    Shift=    0.000
 RMSDP=5.32D-07 MaxDP=3.10D-05 DE=-9.97D-08 OVMax= 3.00D-05

 Cycle   8  Pass 1  IDiag  1:
 E= -278.407222554008     Delta-E=       -0.000000010777 Rises=F Damp=F
 DIIS: error= 2.69D-06 at cycle   8 NSaved=   8.
 NSaved= 8 IEnMin= 8 EnMin= -278.407222554008     IErMin= 8 ErrMin= 2.69D-06
 ErrMax= 2.69D-06  0.00D+00 EMaxC= 1.00D-01 BMatC= 8.03D-10 BMatP= 1.35D-08
 IDIUse=1 WtCom= 1.00D+00 WtEn= 0.00D+00
 Coeff-Com:  0.216D-04-0.101D-03-0.278D-03-0.973D-04-0.509D-03 0.460D-01
 Coeff-Com:  0.257D+00 0.698D+00
 Coeff:      0.216D-04-0.101D-03-0.278D-03-0.973D-04-0.509D-03 0.460D-01
 Coeff:      0.257D+00 0.698D+00
 Gap=     0.343 Goal=   None    Shift=    0.000
 RMSDP=1.50D-07 MaxDP=6.27D-06 DE=-1.08D-08 OVMax= 7.68D-06

 Cycle   9  Pass 1  IDiag  1:
 E= -278.407222554736     Delta-E=       -0.000000000728 Rises=F Damp=F
 DIIS: error= 2.62D-07 at cycle   9 NSaved=   9.
 NSaved= 9 IEnMin= 9 EnMin= -278.407222554736     IErMin= 9 ErrMin= 2.62D-07
 ErrMax= 2.62D-07  0.00D+00 EMaxC= 1.00D-01 BMatC= 6.58D-12 BMatP= 8.03D-10
 IDIUse=1 WtCom= 1.00D+00 WtEn= 0.00D+00
 Coeff-Com:  0.413D-05-0.123D-04-0.128D-03-0.184D-03-0.100D-02 0.243D-02
 Coeff-Com:  0.282D-01 0.131D+00 0.840D+00
 Coeff:      0.413D-05-0.123D-04-0.128D-03-0.184D-03-0.100D-02 0.243D-02
 Coeff:      0.282D-01 0.131D+00 0.840D+00
 Gap=     0.343 Goal=   None    Shift=    0.000
 RMSDP=1.87D-08 MaxDP=5.21D-07 DE=-7.28D-10 OVMax= 1.03D-06

 Cycle  10  Pass 1  IDiag  1:
 E= -278.407222554746     Delta-E=       -0.000000000010 Rises=F Damp=F
 DIIS: error= 3.46D-08 at cycle  10 NSaved=  10.
 NSaved=10 IEnMin=10 EnMin= -278.407222554746     IErMin=10 ErrMin= 3.46D-08
 ErrMax= 3.46D-08  0.00D+00 EMaxC= 1.00D-01 BMatC= 1.63D-13 BMatP= 6.58D-12
 IDIUse=1 WtCom= 1.00D+00 WtEn= 0.00D+00
 Coeff-Com:  0.216D-07 0.212D-06-0.131D-04-0.279D-04-0.142D-03-0.557D-03
 Coeff-Com: -0.208D-02 0.409D-02 0.155D+00 0.844D+00
 Coeff:      0.216D-07 0.212D-06-0.131D-04-0.279D-04-0.142D-03-0.557D-03
 Coeff:     -0.208D-02 0.409D-02 0.155D+00 0.844D+00
 Gap=     0.343 Goal=   None    Shift=    0.000
 RMSDP=2.70D-09 MaxDP=4.12D-08 DE=-1.00D-11 OVMax= 1.41D-07

 SCF Done:  E(RB3LYP) =  -278.407222555     A.U. after   10 cycles
            NFock= 10  Conv=0.27D-08     -V/T= 2.0033
 KE= 2.774852861232D+02 PE=-9.242988385571D+02 EE= 2.358827625925D+02
 Leave Link  502 at Fri Sep  6 14:15:37 2024, MaxMem=  1073741824 cpu:              15.4 elap:               2.1
 (Enter /Users/asuyarger/Applications/G16/g16/l601.exe)
 Copying SCF densities to generalized density rwf, IOpCl= 0 IROHF=0.

 **********************************************************************

            Population analysis using the SCF density.

 **********************************************************************

 Orbital symmetries:
       Occupied  (A") (A') (A') (A') (A') (A") (A') (A') (A') (A")
                 (A') (A") (A') (A") (A') (A") (A')
       Virtual   (A') (A') (A") (A') (A") (A') (A') (A') (A") (A')
                 (A') (A') (A") (A') (A") (A') (A') (A') (A") (A')
                 (A') (A") (A') (A') (A") (A") (A') (A') (A") (A')
                 (A") (A') (A') (A") (A') (A") (A') (A") (A') (A')
                 (A') (A") (A') (A") (A') (A') (A") (A') (A') (A')
                 (A") (A') (A') (A") (A') (A") (A') (A') (A") (A')
                 (A') (A') (A") (A") (A') (A') (A") (A") (A") (A')
                 (A') (A") (A") (A') (A") (A') (A") (A') (A') (A")
                 (A') (A") (A') (A') (A") (A') (A") (A') (A') (A")
                 (A') (A") (A') (A') (A') (A') (A") (A') (A") (A')
                 (A') (A") (A') (A") (A') (A') (A") (A') (A') (A")
                 (A') (A') (A") (A") (A') (A') (A") (A") (A') (A")
                 (A') (A") (A') (A") (A') (A') (A') (A") (A') (A")
                 (A") (A') (A') (A") (A') (A") (A') (A') (A") (A')
                 (A') (A") (A')
 The electronic state is 1-A'.
 Alpha  occ. eigenvalues --  -24.68500 -24.68500 -10.34183 -10.19064  -1.26311
 Alpha  occ. eigenvalues --   -1.19398  -0.78042  -0.65995  -0.56230  -0.55067
 Alpha  occ. eigenvalues --   -0.51824  -0.43890  -0.43194  -0.41331  -0.40456
 Alpha  occ. eigenvalues --   -0.39123  -0.35294
 Alpha virt. eigenvalues --   -0.01016   0.00926   0.02698   0.03631   0.05183
 Alpha virt. eigenvalues --    0.05698   0.06988   0.08833   0.09597   0.10925
 Alpha virt. eigenvalues --    0.12215   0.13455   0.13937   0.15385   0.17009
 Alpha virt. eigenvalues --    0.18195   0.20690   0.22688   0.23337   0.26528
 Alpha virt. eigenvalues --    0.29595   0.29725   0.32507   0.33121   0.33152
 Alpha virt. eigenvalues --    0.33389   0.35837   0.38755   0.40363   0.41167
 Alpha virt. eigenvalues --    0.41456   0.41657   0.47528   0.48462   0.50815
 Alpha virt. eigenvalues --    0.51954   0.52943   0.55868   0.58409   0.60989
 Alpha virt. eigenvalues --    0.70531   0.72580   0.73481   0.74518   0.76493
 Alpha virt. eigenvalues --    0.79288   0.82992   0.83446   0.85087   0.94886
 Alpha virt. eigenvalues --    0.95545   0.98994   1.02282   1.04236   1.06104
 Alpha virt. eigenvalues --    1.22748   1.23306   1.23984   1.30593   1.33937
 Alpha virt. eigenvalues --    1.35939   1.37240   1.37914   1.42024   1.46186
 Alpha virt. eigenvalues --    1.51010   1.51668   1.76451   1.77550   1.81844
 Alpha virt. eigenvalues --    1.89099   1.94202   1.99170   1.99743   2.02726
 Alpha virt. eigenvalues --    2.04073   2.06348   2.12549   2.16033   2.21699
 Alpha virt. eigenvalues --    2.26052   2.30258   2.30507   2.41452   2.42474
 Alpha virt. eigenvalues --    2.47791   2.58783   2.60814   2.72532   2.76119
 Alpha virt. eigenvalues --    2.78467   2.93202   2.93357   2.95102   3.07007
 Alpha virt. eigenvalues --    3.26689   3.34595   3.40344   3.43445   3.46618
 Alpha virt. eigenvalues --    3.49475   3.49718   3.52387   3.53144   3.54945
 Alpha virt. eigenvalues --    3.60803   4.13295   4.13522   4.13737   4.22067
 Alpha virt. eigenvalues --    4.44584   6.33695   6.33800   6.38810   6.41351
 Alpha virt. eigenvalues --    6.59354   6.67194   8.26405   8.28874   8.29091
 Alpha virt. eigenvalues --    8.34146   8.35912   8.37674   8.43380   8.46453
 Alpha virt. eigenvalues --    8.51939   8.61386   8.66329   8.67259   9.06213
 Alpha virt. eigenvalues --    9.08871   9.14479   9.18018   9.26697   9.39222
 Alpha virt. eigenvalues --    9.41621   9.52350   9.65815   9.74790  23.86594
 Alpha virt. eigenvalues --   24.03689  66.85243  66.86735
     Molecular Orbital Coefficients:
                           1         2         3         4         5
                           O         O         O         O         O
     Eigenvalues --   -24.68500 -24.68500 -10.34183 -10.19064  -1.26311
   1 1   C  1S          0.00000   0.00004   0.56325  -0.00048  -0.04611
   2        2S          0.00000  -0.00017   0.46319  -0.00048  -0.07053
   3        2PX         0.00000   0.00001  -0.00023  -0.00037  -0.00023
   4        2PY         0.00000   0.00011  -0.00135   0.00026  -0.04409
   5        2PZ         0.00017   0.00000   0.00000   0.00000   0.00000
   6        3S          0.00000  -0.00022   0.01881   0.00064   0.19143
   7        3PX         0.00000  -0.00010   0.00120   0.00036  -0.00379
   8        3PY         0.00000  -0.00135   0.00067  -0.00012  -0.05864
   9        3PZ        -0.00192   0.00000   0.00000   0.00000   0.00000
  10        4S          0.00000   0.01159  -0.00982   0.01197  -0.12282
  11        4PX         0.00000  -0.00108   0.00435   0.00018   0.00556
  12        4PY         0.00000  -0.00668   0.00233  -0.00156   0.04100
  13        4PZ        -0.00691   0.00000   0.00000   0.00000   0.00000
  14        5S          0.00000  -0.00775  -0.00424   0.00807   0.07574
  15        5PX         0.00000   0.00111  -0.00137  -0.00087  -0.01589
  16        5PY         0.00000  -0.00096  -0.00157   0.00097   0.01043
  17        5PZ         0.00051   0.00000   0.00000   0.00000   0.00000
  18        6D 0        0.00000   0.00005   0.00001  -0.00005   0.00723
  19        6D+1       -0.00002   0.00000   0.00000   0.00000   0.00000
  20        6D-1        0.00022   0.00000   0.00000   0.00000   0.00000
  21        6D+2        0.00000  -0.00009  -0.00005   0.00009  -0.00697
  22        6D-2        0.00000  -0.00001   0.00009  -0.00007  -0.00026
  23        7D 0        0.00000   0.00102  -0.00083   0.00061   0.00234
  24        7D+1        0.00016   0.00000   0.00000   0.00000   0.00000
  25        7D-1        0.00200   0.00000   0.00000   0.00000   0.00000
  26        7D+2        0.00000  -0.00076   0.00077  -0.00093  -0.00692
  27        7D-2        0.00000  -0.00015   0.00155   0.00155  -0.00072
  28 2   H  1S          0.00000   0.00012   0.00027   0.00004   0.01044
  29        2S          0.00000   0.00017  -0.00604  -0.00187   0.03094
  30        3S          0.00000   0.00062   0.00052  -0.00052   0.01697
  31        4S          0.00000   0.00080   0.00210  -0.00067  -0.00642
  32        5PX         0.00000  -0.00001  -0.00029  -0.00005  -0.00010
  33        5PY         0.00000  -0.00000  -0.00016   0.00000  -0.00033
  34        5PZ         0.00002   0.00000   0.00000   0.00000   0.00000
  35        6PX         0.00000  -0.00007   0.00227   0.00043  -0.00424
  36        6PY         0.00000  -0.00002   0.00124  -0.00001  -0.00300
  37        6PZ        -0.00005   0.00000   0.00000   0.00000   0.00000
  38        7PX         0.00000  -0.00023   0.00042   0.00012  -0.00683
  39        7PY         0.00000   0.00107   0.00093   0.00066  -0.01715
  40        7PZ         0.00135   0.00000   0.00000   0.00000   0.00000
  41 3   C  1S          0.00000   0.00001   0.00047   0.56295  -0.00532
  42        2S          0.00000  -0.00004   0.00033   0.46304  -0.00800
  43        2PX         0.00000   0.00006   0.00033   0.00024   0.00396
  44        2PY         0.00000  -0.00004  -0.00032  -0.00010  -0.00432
  45        2PZ        -0.00000   0.00000   0.00000   0.00000   0.00000
  46        3S          0.00000   0.00045   0.00067   0.02069   0.01679
  47        3PX         0.00000  -0.00021  -0.00051  -0.00095   0.01117
  48        3PY         0.00000   0.00006   0.00097   0.00069  -0.01187
  49        3PZ        -0.00007   0.00000   0.00000   0.00000   0.00000
  50        4S          0.00000  -0.00073   0.00867  -0.01385   0.04390
  51        4PX         0.00000  -0.00022  -0.00177  -0.00514   0.01230
  52        4PY         0.00000   0.00148   0.00210   0.00493  -0.03161
  53        4PZ         0.00084   0.00000   0.00000   0.00000   0.00000
  54        5S          0.00000   0.00454   0.00025  -0.02114  -0.04273
  55        5PX         0.00000   0.00163   0.00050  -0.00039  -0.01890
  56        5PY         0.00000  -0.00073   0.00091   0.00063   0.00884
  57        5PZ         0.00000   0.00000   0.00000   0.00000   0.00000
  58        6D 0        0.00000  -0.00003  -0.00002   0.00005  -0.00050
  59        6D+1       -0.00000   0.00000   0.00000   0.00000   0.00000
  60        6D-1       -0.00001   0.00000   0.00000   0.00000   0.00000
  61        6D+2        0.00000   0.00000   0.00005  -0.00002  -0.00005
  62        6D-2        0.00000  -0.00003   0.00002   0.00008  -0.00137
  63        7D 0        0.00000   0.00008   0.00147   0.00112  -0.00528
  64        7D+1        0.00015   0.00000   0.00000   0.00000   0.00000
  65        7D-1       -0.00039   0.00000   0.00000   0.00000   0.00000
  66        7D+2        0.00000   0.00015  -0.00085  -0.00065  -0.00012
  67        7D-2        0.00000   0.00040   0.00098   0.00121  -0.00528
  68 4   H  1S          0.00001   0.00004   0.00002   0.00031   0.00121
  69        2S          0.00008  -0.00020  -0.00237  -0.00469   0.00481
  70        3S          0.00107   0.00024  -0.00202   0.00619  -0.00273
  71        4S         -0.00063  -0.00005   0.00005   0.00202  -0.00119
  72        5PX         0.00002   0.00002  -0.00002   0.00000  -0.00004
  73        5PY        -0.00001  -0.00003  -0.00002  -0.00021   0.00012
  74        5PZ         0.00000  -0.00000  -0.00002  -0.00028  -0.00001
  75        6PX        -0.00009  -0.00007   0.00001  -0.00008   0.00044
  76        6PY         0.00005   0.00009   0.00027   0.00159  -0.00140
  77        6PZ        -0.00005   0.00002   0.00027   0.00208  -0.00053
  78        7PX         0.00044   0.00008   0.00030   0.00116  -0.00122
  79        7PY        -0.00047  -0.00024   0.00039  -0.00111   0.00335
  80        7PZ        -0.00027   0.00003   0.00081  -0.00012  -0.00082
  81 5   H  1S         -0.00001   0.00004   0.00002   0.00031   0.00121
  82        2S         -0.00008  -0.00020  -0.00237  -0.00469   0.00481
  83        3S         -0.00107   0.00024  -0.00202   0.00619  -0.00273
  84        4S          0.00063  -0.00005   0.00005   0.00202  -0.00119
  85        5PX        -0.00002   0.00002  -0.00002   0.00000  -0.00004
  86        5PY         0.00001  -0.00003  -0.00002  -0.00021   0.00012
  87        5PZ         0.00000   0.00000   0.00002   0.00028   0.00001
  88        6PX         0.00009  -0.00007   0.00001  -0.00008   0.00044
  89        6PY        -0.00005   0.00009   0.00027   0.00159  -0.00140
  90        6PZ        -0.00005  -0.00002  -0.00027  -0.00208   0.00053
  91        7PX        -0.00044   0.00008   0.00030   0.00116  -0.00122
  92        7PY         0.00047  -0.00024   0.00039  -0.00111   0.00335
  93        7PZ        -0.00027  -0.00003  -0.00081   0.00012   0.00082
  94 6   H  1S          0.00000   0.00003   0.00006   0.00029   0.00171
  95        2S          0.00000  -0.00013  -0.00082  -0.00383  -0.00286
  96        3S          0.00000  -0.00060  -0.00071   0.00712  -0.00179
  97        4S          0.00000   0.00091   0.00044   0.00234  -0.01045
  98        5PX         0.00000   0.00001  -0.00000   0.00028  -0.00000
  99        5PY         0.00000   0.00001   0.00002   0.00019  -0.00002
 100        5PZ        -0.00000   0.00000   0.00000   0.00000   0.00000
 101        6PX         0.00000  -0.00004  -0.00008  -0.00212   0.00049
 102        6PY         0.00000  -0.00010  -0.00004  -0.00137   0.00039
 103        6PZ        -0.00000   0.00000   0.00000   0.00000   0.00000
 104        7PX         0.00000  -0.00060  -0.00000   0.00160   0.00304
 105        7PY         0.00000   0.00011  -0.00039  -0.00056  -0.00035
 106        7PZ        -0.00013   0.00000   0.00000   0.00000   0.00000
 107 7   F  1S          0.38727   0.38727  -0.00003  -0.00000  -0.08153
 108        2S          0.33364   0.33364  -0.00010  -0.00001  -0.13162
 109        2PX         0.00000   0.00001  -0.00002  -0.00002  -0.00023
 110        2PY         0.00040   0.00040   0.00007   0.00002   0.01947
 111        2PZ         0.00043   0.00043   0.00011   0.00001   0.02857
 112        3S          0.00919   0.00929   0.00087   0.00022   0.38564
 113        3PX        -0.00001  -0.00004   0.00011   0.00009  -0.00010
 114        3PY         0.00002  -0.00001   0.00016  -0.00012   0.03158
 115        3PZ         0.00003   0.00006   0.00005  -0.00001   0.04553
 116        4S         -0.00856  -0.00902  -0.00142  -0.00197   0.32801
 117        4PX         0.00011   0.00016  -0.00041  -0.00012  -0.00156
 118        4PY        -0.00194  -0.00143  -0.00117  -0.00020   0.03016
 119        4PZ        -0.00185  -0.00241  -0.00106  -0.00095   0.04274
 120        5S          0.00122  -0.00009   0.00442  -0.00097   0.00657
 121        5PX        -0.00008  -0.00009  -0.00025  -0.00045   0.00196
 122        5PY        -0.00008   0.00015   0.00204  -0.00015  -0.00420
 123        5PZ         0.00078  -0.00054   0.00167  -0.00037   0.00272
 124        6D 0        0.00006   0.00008   0.00010   0.00005   0.00112
 125        6D+1       -0.00000  -0.00000   0.00000  -0.00002   0.00002
 126        6D-1        0.00016   0.00013   0.00025  -0.00001   0.00150
 127        6D+2       -0.00008  -0.00005  -0.00009  -0.00002  -0.00063
 128        6D-2       -0.00000  -0.00000   0.00003   0.00005  -0.00001
 129        7D 0       -0.00017  -0.00028  -0.00041  -0.00022   0.00481
 130        7D+1        0.00002   0.00002  -0.00000   0.00010  -0.00018
 131        7D-1       -0.00052  -0.00040  -0.00101  -0.00000   0.01009
 132        7D+2        0.00025   0.00014   0.00036   0.00008  -0.00385
 133        7D-2        0.00002   0.00001  -0.00012  -0.00019  -0.00000
 134 8   F  1S         -0.38727   0.38727  -0.00003  -0.00000  -0.08153
 135        2S         -0.33364   0.33364  -0.00010  -0.00001  -0.13162
 136        2PX        -0.00000   0.00001  -0.00002  -0.00002  -0.00023
 137        2PY        -0.00040   0.00040   0.00007   0.00002   0.01947
 138        2PZ         0.00043  -0.00043  -0.00011  -0.00001  -0.02857
 139        3S         -0.00919   0.00929   0.00087   0.00022   0.38564
 140        3PX         0.00001  -0.00004   0.00011   0.00009  -0.00010
 141        3PY        -0.00002  -0.00001   0.00016  -0.00012   0.03158
 142        3PZ         0.00003  -0.00006  -0.00005   0.00001  -0.04553
 143        4S          0.00856  -0.00902  -0.00142  -0.00197   0.32801
 144        4PX        -0.00011   0.00016  -0.00041  -0.00012  -0.00156
 145        4PY         0.00194  -0.00143  -0.00117  -0.00020   0.03016
 146        4PZ        -0.00185   0.00241   0.00106   0.00095  -0.04274
 147        5S         -0.00122  -0.00009   0.00442  -0.00097   0.00657
 148        5PX         0.00008  -0.00009  -0.00025  -0.00045   0.00196
 149        5PY         0.00008   0.00015   0.00204  -0.00015  -0.00420
 150        5PZ         0.00078   0.00054  -0.00167   0.00037  -0.00272
 151        6D 0       -0.00006   0.00008   0.00010   0.00005   0.00112
 152        6D+1       -0.00000   0.00000  -0.00000   0.00002  -0.00002
 153        6D-1        0.00016  -0.00013  -0.00025   0.00001  -0.00150
 154        6D+2        0.00008  -0.00005  -0.00009  -0.00002  -0.00063
 155        6D-2        0.00000  -0.00000   0.00003   0.00005  -0.00001
 156        7D 0        0.00017  -0.00028  -0.00041  -0.00022   0.00481
 157        7D+1        0.00002  -0.00002   0.00000  -0.00010   0.00018
 158        7D-1       -0.00052   0.00040   0.00101   0.00000  -0.01009
 159        7D+2       -0.00025   0.00014   0.00036   0.00008  -0.00385
 160        7D-2       -0.00002   0.00001  -0.00012  -0.00019  -0.00000
                           6         7         8         9        10
                           O         O         O         O         O
     Eigenvalues --    -1.19398  -0.78042  -0.65995  -0.56230  -0.55067
   1 1   C  1S          0.00000  -0.06693  -0.06726  -0.00629   0.00000
   2        2S          0.00000  -0.10482  -0.10665  -0.00929   0.00000
   3        2PX         0.00000  -0.03775   0.06710   0.11276   0.00000
   4        2PY         0.00000   0.04613  -0.02890   0.12107   0.00000
   5        2PZ        -0.06300   0.00000   0.00000   0.00000  -0.15211
   6        3S          0.00000   0.29484   0.31498   0.01660   0.00000
   7        3PX         0.00000  -0.06037   0.09316   0.16657   0.00000
   8        3PY         0.00000   0.06212  -0.05033   0.17974   0.00000
   9        3PZ        -0.07531   0.00000   0.00000   0.00000  -0.22319
  10        4S          0.00000   0.12946   0.09845   0.08344   0.00000
  11        4PX         0.00000  -0.03476   0.02665   0.08105   0.00000
  12        4PY         0.00000   0.02278   0.00107   0.06570   0.00000
  13        4PZ         0.04133   0.00000   0.00000   0.00000  -0.07273
  14        5S          0.00000  -0.06672  -0.11327   0.09331   0.00000
  15        5PX         0.00000   0.00703   0.03225   0.03510   0.00000
  16        5PY         0.00000   0.00024  -0.00656   0.01891   0.00000
  17        5PZ        -0.00506   0.00000   0.00000   0.00000   0.00805
  18        6D 0        0.00000  -0.00399   0.00185  -0.00227   0.00000
  19        6D+1        0.00007   0.00000   0.00000   0.00000   0.00132
  20        6D-1        0.01824   0.00000   0.00000   0.00000   0.01861
  21        6D+2        0.00000   0.00419  -0.00260   0.00966   0.00000
  22        6D-2        0.00000  -0.00369   0.00319  -0.00014   0.00000
  23        7D 0        0.00000  -0.00241   0.00423   0.00538   0.00000
  24        7D+1        0.00140   0.00000   0.00000   0.00000   0.00718
  25        7D-1        0.00454   0.00000   0.00000   0.00000   0.01269
  26        7D+2        0.00000   0.00394  -0.00697   0.01335   0.00000
  27        7D-2        0.00000  -0.00828  -0.00028  -0.00677   0.00000
  28 2   H  1S          0.00000   0.04362   0.07884   0.11097   0.00000
  29        2S          0.00000   0.06104   0.11523   0.13783   0.00000
  30        3S          0.00000   0.02426   0.05506   0.01184   0.00000
  31        4S          0.00000   0.00874  -0.00380  -0.04483   0.00000
  32        5PX         0.00000  -0.00121  -0.00195  -0.00328   0.00000
  33        5PY         0.00000  -0.00044  -0.00162  -0.00197   0.00000
  34        5PZ        -0.00050   0.00000   0.00000   0.00000  -0.00105
  35        6PX         0.00000  -0.00873  -0.00954  -0.00689   0.00000
  36        6PY         0.00000  -0.00212  -0.00695  -0.00076   0.00000
  37        6PZ         0.00003   0.00000   0.00000   0.00000  -0.00414
  38        7PX         0.00000  -0.00633  -0.01433  -0.00434   0.00000
  39        7PY         0.00000  -0.00636  -0.01454   0.00247   0.00000
  40        7PZ        -0.01497   0.00000   0.00000   0.00000  -0.01199
  41 3   C  1S          0.00000  -0.08904   0.05690  -0.00034   0.00000
  42        2S          0.00000  -0.13821   0.08887  -0.00052   0.00000
  43        2PX         0.00000   0.02377   0.03809   0.02503   0.00000
  44        2PY         0.00000  -0.01245  -0.02043   0.04530   0.00000
  45        2PZ        -0.00282   0.00000   0.00000   0.00000  -0.04648
  46        3S          0.00000   0.36252  -0.23664   0.00028   0.00000
  47        3PX         0.00000   0.04031   0.05370   0.03297   0.00000
  48        3PY         0.00000  -0.02341  -0.03121   0.06648   0.00000
  49        3PZ        -0.00590   0.00000   0.00000   0.00000  -0.07003
  50        4S          0.00000   0.15262  -0.11396  -0.01893   0.00000
  51        4PX         0.00000   0.02970   0.01623   0.01451   0.00000
  52        4PY         0.00000  -0.02028  -0.01942   0.03087   0.00000
  53        4PZ        -0.02448   0.00000   0.00000   0.00000  -0.03708
  54        5S          0.00000   0.04038   0.08070  -0.05346   0.00000
  55        5PX         0.00000   0.00478   0.01795  -0.01196   0.00000
  56        5PY         0.00000  -0.01509  -0.01177  -0.01039   0.00000
  57        5PZ        -0.00131   0.00000   0.00000   0.00000   0.00984
  58        6D 0        0.00000  -0.00207  -0.00214   0.00231   0.00000
  59        6D+1       -0.00069   0.00000   0.00000   0.00000  -0.00292
  60        6D-1        0.00100   0.00000   0.00000   0.00000   0.00006
  61        6D+2        0.00000   0.00159   0.00173   0.00241   0.00000
  62        6D-2        0.00000  -0.00372  -0.00358   0.00030   0.00000
  63        7D 0        0.00000  -0.00619  -0.00610   0.00045   0.00000
  64        7D+1       -0.00133   0.00000   0.00000   0.00000  -0.00618
  65        7D-1       -0.00384   0.00000   0.00000   0.00000  -0.00505
  66        7D+2        0.00000   0.00583   0.00302   0.01122   0.00000
  67        7D-2        0.00000  -0.00625  -0.00297   0.00688   0.00000
  68 4   H  1S         -0.00069   0.05983  -0.05676   0.01885  -0.02574
  69        2S          0.00824   0.07819  -0.06816   0.02768  -0.02793
  70        3S         -0.00239   0.01537  -0.01649   0.02173  -0.02645
  71        4S          0.00600   0.00479  -0.00098   0.01375  -0.01293
  72        5PX        -0.00006   0.00018   0.00020   0.00029  -0.00016
  73        5PY         0.00003  -0.00110   0.00104  -0.00021   0.00064
  74        5PZ         0.00007  -0.00146   0.00153  -0.00055   0.00061
  75        6PX         0.00039   0.00158   0.00091   0.00136  -0.00013
  76        6PY        -0.00034  -0.00683   0.00348   0.00053   0.00196
  77        6PZ        -0.00076  -0.00827   0.00623  -0.00218  -0.00045
  78        7PX        -0.00459  -0.00299   0.00103  -0.00060  -0.00337
  79        7PY         0.00237  -0.00310   0.00341  -0.00290   0.00616
  80        7PZ         0.00105  -0.00789   0.00508  -0.00497   0.00365
  81 5   H  1S          0.00069   0.05983  -0.05676   0.01885   0.02574
  82        2S         -0.00824   0.07819  -0.06816   0.02768   0.02793
  83        3S          0.00239   0.01537  -0.01649   0.02173   0.02645
  84        4S         -0.00600   0.00479  -0.00098   0.01375   0.01293
  85        5PX         0.00006   0.00018   0.00020   0.00029   0.00016
  86        5PY        -0.00003  -0.00110   0.00104  -0.00021  -0.00064
  87        5PZ         0.00007   0.00146  -0.00153   0.00055   0.00061
  88        6PX        -0.00039   0.00158   0.00091   0.00136   0.00013
  89        6PY         0.00034  -0.00683   0.00348   0.00053  -0.00196
  90        6PZ        -0.00076   0.00827  -0.00623   0.00218  -0.00045
  91        7PX         0.00459  -0.00299   0.00103  -0.00060   0.00337
  92        7PY        -0.00237  -0.00310   0.00341  -0.00290  -0.00616
  93        7PZ         0.00105   0.00789  -0.00508   0.00497   0.00365
  94 6   H  1S          0.00000   0.05653  -0.06064  -0.03053   0.00000
  95        2S          0.00000   0.07086  -0.08129  -0.04667   0.00000
  96        3S          0.00000   0.00627  -0.01970  -0.01705   0.00000
  97        4S          0.00000  -0.00463   0.00727  -0.00239   0.00000
  98        5PX         0.00000   0.00149  -0.00143  -0.00083   0.00000
  99        5PY         0.00000   0.00093  -0.00124  -0.00021   0.00000
 100        5PZ         0.00009   0.00000   0.00000   0.00000  -0.00012
 101        6PX         0.00000   0.00907  -0.00676  -0.00387   0.00000
 102        6PY         0.00000   0.00427  -0.00543  -0.00087   0.00000
 103        6PZ        -0.00076   0.00000   0.00000   0.00000  -0.00327
 104        7PX         0.00000   0.00236  -0.00528  -0.00808   0.00000
 105        7PY         0.00000   0.00550  -0.00609  -0.00224   0.00000
 106        7PZ         0.00278   0.00000   0.00000   0.00000   0.00064
 107 7   F  1S         -0.08907   0.02513   0.02750  -0.01115   0.02127
 108        2S         -0.14410   0.04110   0.04506  -0.01828   0.03487
 109        2PX        -0.00018  -0.01078   0.02887   0.08561  -0.00495
 110        2PY         0.01933   0.03781   0.06385   0.00262   0.15464
 111        2PZ         0.01612   0.02856   0.09040  -0.11701   0.10045
 112        3S          0.42661  -0.12790  -0.14152   0.05770  -0.11049
 113        3PX        -0.00013  -0.01566   0.04131   0.12294  -0.00704
 114        3PY         0.03194   0.05395   0.09203   0.00364   0.22426
 115        3PZ         0.02783   0.04052   0.13035  -0.16888   0.14587
 116        4S          0.35432  -0.11866  -0.13848   0.05815  -0.12059
 117        4PX        -0.00053  -0.01091   0.03404   0.10283  -0.00466
 118        4PY         0.03000   0.03797   0.06826   0.00533   0.17385
 119        4PZ         0.02643   0.02722   0.09673  -0.13285   0.10850
 120        5S         -0.01532  -0.01241  -0.00853   0.00586  -0.04058
 121        5PX         0.00089   0.00472  -0.00441  -0.00424  -0.00071
 122        5PY        -0.00306  -0.00709  -0.00229  -0.00101   0.00786
 123        5PZ        -0.01293  -0.00258   0.00165  -0.00922   0.00351
 124        6D 0        0.00018   0.00013   0.00132  -0.00207   0.00034
 125        6D+1        0.00000  -0.00026   0.00055   0.00120  -0.00007
 126        6D-1        0.00138   0.00108   0.00216  -0.00125   0.00319
 127        6D+2       -0.00064  -0.00055  -0.00083  -0.00001  -0.00170
 128        6D-2       -0.00000  -0.00028   0.00047   0.00098  -0.00010
 129        7D 0        0.00361  -0.00037   0.00423  -0.00896  -0.00003
 130        7D+1       -0.00003  -0.00148   0.00307   0.00763  -0.00002
 131        7D-1        0.00951   0.00428   0.00871  -0.00421   0.01203
 132        7D+2       -0.00446  -0.00223  -0.00297  -0.00162  -0.00862
 133        7D-2       -0.00000  -0.00137   0.00302   0.00638  -0.00020
 134 8   F  1S          0.08907   0.02513   0.02750  -0.01115  -0.02127
 135        2S          0.14410   0.04110   0.04506  -0.01828  -0.03487
 136        2PX         0.00018  -0.01078   0.02887   0.08561   0.00495
 137        2PY        -0.01933   0.03781   0.06385   0.00262  -0.15464
 138        2PZ         0.01612  -0.02856  -0.09040   0.11701   0.10045
 139        3S         -0.42661  -0.12790  -0.14152   0.05770   0.11049
 140        3PX         0.00013  -0.01566   0.04131   0.12294   0.00704
 141        3PY        -0.03194   0.05395   0.09203   0.00364  -0.22426
 142        3PZ         0.02783  -0.04052  -0.13035   0.16888   0.14587
 143        4S         -0.35432  -0.11866  -0.13848   0.05815   0.12059
 144        4PX         0.00053  -0.01091   0.03404   0.10283   0.00466
 145        4PY        -0.03000   0.03797   0.06826   0.00533  -0.17385
 146        4PZ         0.02643  -0.02722  -0.09673   0.13285   0.10850
 147        5S          0.01532  -0.01241  -0.00853   0.00586   0.04058
 148        5PX        -0.00089   0.00472  -0.00441  -0.00424   0.00071
 149        5PY         0.00306  -0.00709  -0.00229  -0.00101  -0.00786
 150        5PZ        -0.01293   0.00258  -0.00165   0.00922   0.00351
 151        6D 0       -0.00018   0.00013   0.00132  -0.00207  -0.00034
 152        6D+1        0.00000   0.00026  -0.00055  -0.00120  -0.00007
 153        6D-1        0.00138  -0.00108  -0.00216   0.00125   0.00319
 154        6D+2        0.00064  -0.00055  -0.00083  -0.00001   0.00170
 155        6D-2        0.00000  -0.00028   0.00047   0.00098   0.00010
 156        7D 0       -0.00361  -0.00037   0.00423  -0.00896   0.00003
 157        7D+1       -0.00003   0.00148  -0.00307  -0.00763  -0.00002
 158        7D-1        0.00951  -0.00428  -0.00871   0.00421   0.01203
 159        7D+2        0.00446  -0.00223  -0.00297  -0.00162   0.00862
 160        7D-2        0.00000  -0.00137   0.00302   0.00638   0.00020
                          11        12        13        14        15
                           O         O         O         O         O
     Eigenvalues --    -0.51824  -0.43890  -0.43194  -0.41331  -0.40456
   1 1   C  1S          0.02009   0.00000   0.01255   0.00000   0.01555
   2        2S          0.03165   0.00000   0.01964   0.00000   0.02436
   3        2PX         0.09993   0.00000   0.01913   0.00000  -0.01695
   4        2PY        -0.08769   0.00000  -0.06531   0.00000  -0.06709
   5        2PZ         0.00000  -0.01926   0.00000   0.01497   0.00000
   6        3S         -0.09206   0.00000  -0.05289   0.00000  -0.06422
   7        3PX         0.15147   0.00000   0.03219   0.00000  -0.02294
   8        3PY        -0.13438   0.00000  -0.08414   0.00000  -0.08981
   9        3PZ         0.00000  -0.02492   0.00000   0.01396   0.00000
  10        4S         -0.09383   0.00000  -0.10197   0.00000  -0.15579
  11        4PX         0.06248   0.00000   0.03366   0.00000  -0.01547
  12        4PY        -0.04281   0.00000  -0.03227   0.00000  -0.03849
  13        4PZ         0.00000   0.02246   0.00000  -0.00515   0.00000
  14        5S         -0.11741   0.00000   0.02406   0.00000  -0.01973
  15        5PX         0.05305   0.00000   0.03577   0.00000  -0.00424
  16        5PY        -0.03097   0.00000   0.02971   0.00000   0.01516
  17        5PZ         0.00000  -0.00987   0.00000  -0.03303   0.00000
  18        6D 0       -0.00245   0.00000   0.01727   0.00000   0.01503
  19        6D+1        0.00000  -0.01335   0.00000  -0.00742   0.00000
  20        6D-1        0.00000   0.01068   0.00000  -0.01314   0.00000
  21        6D+2       -0.00808   0.00000   0.00361   0.00000  -0.00948
  22        6D-2       -0.00187   0.00000   0.00027   0.00000  -0.00188
  23        7D 0       -0.01207   0.00000   0.02944   0.00000   0.02796
  24        7D+1        0.00000  -0.03943   0.00000  -0.01965   0.00000
  25        7D-1        0.00000   0.02063   0.00000  -0.02004   0.00000
  26        7D+2       -0.01685   0.00000   0.02796   0.00000  -0.01844
  27        7D-2       -0.01259   0.00000   0.00537   0.00000  -0.00541
  28 2   H  1S          0.00534   0.00000  -0.03447   0.00000  -0.07090
  29        2S          0.01224   0.00000  -0.05514   0.00000  -0.08538
  30        3S          0.02281   0.00000  -0.03110   0.00000  -0.03579
  31        4S         -0.02357   0.00000  -0.04080   0.00000   0.00007
  32        5PX         0.00000   0.00000   0.00090   0.00000   0.00156
  33        5PY        -0.00088   0.00000  -0.00068   0.00000   0.00092
  34        5PZ         0.00000  -0.00089   0.00000  -0.00086   0.00000
  35        6PX         0.00396   0.00000   0.00598   0.00000   0.00499
  36        6PY        -0.00392   0.00000   0.00274   0.00000   0.00071
  37        6PZ         0.00000   0.00210   0.00000   0.00117   0.00000
  38        7PX        -0.00450   0.00000  -0.00110   0.00000  -0.00527
  39        7PY        -0.01036   0.00000  -0.00147   0.00000  -0.00678
  40        7PZ         0.00000  -0.00651   0.00000  -0.00257   0.00000
  41 3   C  1S         -0.02176   0.00000   0.00093   0.00000   0.00360
  42        2S         -0.03443   0.00000   0.00149   0.00000   0.00580
  43        2PX        -0.09647   0.00000  -0.11885   0.00000   0.05548
  44        2PY         0.07677   0.00000  -0.05839   0.00000   0.16257
  45        2PZ         0.00000   0.13769   0.00000  -0.11815   0.00000
  46        3S          0.09228   0.00000  -0.00579   0.00000  -0.01810
  47        3PX        -0.13868   0.00000  -0.16984   0.00000   0.07754
  48        3PY         0.10675   0.00000  -0.08318   0.00000   0.22721
  49        3PZ         0.00000   0.18901   0.00000  -0.16746   0.00000
  50        4S          0.03500   0.00000   0.02253   0.00000   0.02168
  51        4PX        -0.07388   0.00000  -0.10089   0.00000   0.04497
  52        4PY         0.05471   0.00000  -0.06509   0.00000   0.13301
  53        4PZ         0.00000   0.10304   0.00000  -0.09093   0.00000
  54        5S          0.06530   0.00000  -0.02396   0.00000  -0.00448
  55        5PX         0.04349   0.00000  -0.01510   0.00000  -0.00775
  56        5PY         0.00163   0.00000  -0.02426   0.00000  -0.00721
  57        5PZ         0.00000   0.03603   0.00000   0.03226   0.00000
  58        6D 0        0.00516   0.00000  -0.00235   0.00000   0.01101
  59        6D+1        0.00000   0.00053   0.00000   0.00086   0.00000
  60        6D-1        0.00000   0.00856   0.00000  -0.01055   0.00000
  61        6D+2       -0.00274   0.00000   0.00101   0.00000  -0.00828
  62        6D-2        0.00825   0.00000   0.00773   0.00000  -0.00531
  63        7D 0        0.00141   0.00000  -0.00262   0.00000   0.00525
  64        7D+1        0.00000  -0.00704   0.00000  -0.00530   0.00000
  65        7D-1        0.00000   0.00218   0.00000  -0.00335   0.00000
  66        7D+2       -0.00776   0.00000   0.00243   0.00000  -0.00729
  67        7D-2        0.00475   0.00000   0.00640   0.00000  -0.00274
  68 4   H  1S          0.05883   0.09527  -0.02608  -0.08824   0.08322
  69        2S          0.08286   0.14401  -0.03704  -0.13230   0.12017
  70        3S          0.03294   0.05218  -0.00368  -0.08639   0.06828
  71        4S          0.00294  -0.01902   0.01255  -0.02260   0.01024
  72        5PX        -0.00053  -0.00001  -0.00090  -0.00019   0.00046
  73        5PY        -0.00069  -0.00191   0.00016   0.00180  -0.00046
  74        5PZ        -0.00171  -0.00167   0.00074   0.00158  -0.00232
  75        6PX        -0.00372   0.00218  -0.00601  -0.00015   0.00353
  76        6PY        -0.00170  -0.00877  -0.00132   0.00632   0.00151
  77        6PZ        -0.00638  -0.00425   0.00316   0.00316  -0.00812
  78        7PX         0.00027   0.00204  -0.00308   0.00196   0.00457
  79        7PY        -0.00111  -0.00430  -0.00369   0.00715  -0.00015
  80        7PZ        -0.00486   0.00061   0.00092   0.00753  -0.00566
  81 5   H  1S          0.05883  -0.09527  -0.02608   0.08824   0.08322
  82        2S          0.08286  -0.14401  -0.03704   0.13230   0.12017
  83        3S          0.03294  -0.05218  -0.00368   0.08639   0.06828
  84        4S          0.00294   0.01902   0.01255   0.02260   0.01024
  85        5PX        -0.00053   0.00001  -0.00090   0.00019   0.00046
  86        5PY        -0.00069   0.00191   0.00016  -0.00180  -0.00046
  87        5PZ         0.00171  -0.00167  -0.00074   0.00158   0.00232
  88        6PX        -0.00372  -0.00218  -0.00601   0.00015   0.00353
  89        6PY        -0.00170   0.00877  -0.00132  -0.00632   0.00151
  90        6PZ         0.00638  -0.00425  -0.00316   0.00316   0.00812
  91        7PX         0.00027  -0.00204  -0.00308  -0.00196   0.00457
  92        7PY        -0.00111   0.00430  -0.00369  -0.00715  -0.00015
  93        7PZ         0.00486   0.00061  -0.00092   0.00753   0.00566
  94 6   H  1S          0.05123   0.00000   0.11030   0.00000  -0.12904
  95        2S          0.06795   0.00000   0.14842   0.00000  -0.19596
  96        3S          0.05016   0.00000   0.05542   0.00000  -0.11574
  97        4S          0.03801   0.00000   0.00186   0.00000  -0.01703
  98        5PX         0.00109   0.00000   0.00255   0.00000  -0.00319
  99        5PY         0.00138   0.00000   0.00180   0.00000  -0.00124
 100        5PZ         0.00000   0.00107   0.00000  -0.00077   0.00000
 101        6PX        -0.00001   0.00000   0.00594   0.00000  -0.01150
 102        6PY         0.00792   0.00000   0.00439   0.00000  -0.00112
 103        6PZ         0.00000   0.00634   0.00000  -0.00575   0.00000
 104        7PX         0.00642   0.00000   0.00025   0.00000  -0.00955
 105        7PY         0.00933   0.00000   0.00120   0.00000  -0.00697
 106        7PZ         0.00000   0.00838   0.00000   0.00009   0.00000
 107 7   F  1S          0.00388  -0.00017   0.00015   0.00156  -0.00216
 108        2S          0.00635  -0.00034   0.00022   0.00264  -0.00364
 109        2PX         0.10535   0.15728   0.03957   0.15875  -0.02340
 110        2PY        -0.04775   0.01452   0.15869   0.02508   0.11208
 111        2PZ         0.09216   0.05780  -0.05449  -0.10047   0.00302
 112        3S         -0.01959   0.00165  -0.00123  -0.00895   0.01214
 113        3PX         0.15128   0.22554   0.05711   0.22759  -0.03352
 114        3PY        -0.06884   0.02225   0.22897   0.03411   0.16205
 115        3PZ         0.13237   0.08427  -0.07643  -0.14558   0.00647
 116        4S         -0.02301  -0.00117   0.01006  -0.00871   0.01775
 117        4PX         0.12782   0.19327   0.04957   0.20078  -0.03180
 118        4PY        -0.05847   0.01566   0.19945   0.03442   0.14314
 119        4PZ         0.10736   0.06862  -0.06245  -0.12702   0.00360
 120        5S          0.00988   0.01199   0.00748   0.00222   0.01670
 121        5PX         0.00053   0.02615   0.00182   0.03092  -0.00300
 122        5PY        -0.00067   0.00873   0.02802   0.00525   0.02519
 123        5PZ         0.01257   0.01398  -0.01339  -0.00955   0.00073
 124        6D 0        0.00165   0.00036  -0.00082  -0.00053   0.00016
 125        6D+1        0.00124   0.00086   0.00025   0.00069  -0.00010
 126        6D-1        0.00040   0.00078   0.00093  -0.00074   0.00085
 127        6D+2        0.00037  -0.00016  -0.00078   0.00003  -0.00068
 128        6D-2        0.00097   0.00102   0.00025   0.00073  -0.00013
 129        7D 0        0.00775   0.00311  -0.00452  -0.00659  -0.00043
 130        7D+1        0.00815   0.00613   0.00266   0.00690  -0.00160
 131        7D-1       -0.00017   0.00354   0.00679  -0.00443   0.00586
 132        7D+2        0.00338  -0.00103  -0.00523  -0.00122  -0.00457
 133        7D-2        0.00660   0.00691   0.00157   0.00598  -0.00127
 134 8   F  1S          0.00388   0.00017   0.00015  -0.00156  -0.00216
 135        2S          0.00635   0.00034   0.00022  -0.00264  -0.00364
 136        2PX         0.10535  -0.15728   0.03957  -0.15875  -0.02340
 137        2PY        -0.04775  -0.01452   0.15869  -0.02508   0.11208
 138        2PZ        -0.09216   0.05780   0.05449  -0.10047  -0.00302
 139        3S         -0.01959  -0.00165  -0.00123   0.00895   0.01214
 140        3PX         0.15128  -0.22554   0.05711  -0.22759  -0.03352
 141        3PY        -0.06884  -0.02225   0.22897  -0.03411   0.16205
 142        3PZ        -0.13237   0.08427   0.07643  -0.14558  -0.00647
 143        4S         -0.02301   0.00117   0.01006   0.00871   0.01775
 144        4PX         0.12782  -0.19327   0.04957  -0.20078  -0.03180
 145        4PY        -0.05847  -0.01566   0.19945  -0.03442   0.14314
 146        4PZ        -0.10736   0.06862   0.06245  -0.12702  -0.00360
 147        5S          0.00988  -0.01199   0.00748  -0.00222   0.01670
 148        5PX         0.00053  -0.02615   0.00182  -0.03092  -0.00300
 149        5PY        -0.00067  -0.00873   0.02802  -0.00525   0.02519
 150        5PZ        -0.01257   0.01398   0.01339  -0.00955  -0.00073
 151        6D 0        0.00165  -0.00036  -0.00082   0.00053   0.00016
 152        6D+1       -0.00124   0.00086  -0.00025   0.00069   0.00010
 153        6D-1       -0.00040   0.00078  -0.00093  -0.00074  -0.00085
 154        6D+2        0.00037   0.00016  -0.00078  -0.00003  -0.00068
 155        6D-2        0.00097  -0.00102   0.00025  -0.00073  -0.00013
 156        7D 0        0.00775  -0.00311  -0.00452   0.00659  -0.00043
 157        7D+1       -0.00815   0.00613  -0.00266   0.00690   0.00160
 158        7D-1        0.00017   0.00354  -0.00679  -0.00443  -0.00586
 159        7D+2        0.00338   0.00103  -0.00523   0.00122  -0.00457
 160        7D-2        0.00660  -0.00691   0.00157  -0.00598  -0.00127
                          16        17        18        19        20
                           O         O         V         V         V
     Eigenvalues --    -0.39123  -0.35294  -0.01016   0.00926   0.02698
   1 1   C  1S          0.00000  -0.00269  -0.00827   0.02063   0.00000
   2        2S          0.00000  -0.00449  -0.01362   0.03390   0.00000
   3        2PX         0.00000  -0.14349   0.05030  -0.03650   0.00000
   4        2PY         0.00000   0.00641   0.02744  -0.05195   0.00000
   5        2PZ        -0.00860   0.00000   0.00000   0.00000   0.00971
   6        3S          0.00000   0.01633   0.04553  -0.10931   0.00000
   7        3PX         0.00000  -0.20091   0.07623  -0.05227   0.00000
   8        3PY         0.00000   0.01298   0.03778  -0.07623   0.00000
   9        3PZ        -0.00392   0.00000   0.00000   0.00000   0.01394
  10        4S          0.00000  -0.01274   0.10831  -0.21903   0.00000
  11        4PX         0.00000  -0.14532   0.08578  -0.10029   0.00000
  12        4PY         0.00000   0.02422  -0.01034  -0.04164   0.00000
  13        4PZ         0.02296   0.00000   0.00000   0.00000   0.07123
  14        5S          0.00000  -0.05083   0.39094  -4.66788   0.00000
  15        5PX         0.00000   0.05266   0.50606  -0.29762   0.00000
  16        5PY         0.00000  -0.01131   0.15086  -0.79078   0.00000
  17        5PZ         0.02180   0.00000   0.00000   0.00000   0.56324
  18        6D 0        0.00000  -0.00003  -0.00014  -0.00112   0.00000
  19        6D+1       -0.00057   0.00000   0.00000   0.00000   0.00298
  20        6D-1        0.00843   0.00000   0.00000   0.00000   0.00019
  21        6D+2        0.00000  -0.00083   0.00036   0.00261   0.00000
  22        6D-2        0.00000  -0.02111  -0.00096   0.00113   0.00000
  23        7D 0        0.00000  -0.00275   0.00949  -0.01298   0.00000
  24        7D+1       -0.00064   0.00000   0.00000   0.00000   0.01130
  25        7D-1        0.00825   0.00000   0.00000   0.00000  -0.00820
  26        7D+2        0.00000  -0.00246  -0.01368   0.01656   0.00000
  27        7D-2        0.00000  -0.04138  -0.00597   0.00852   0.00000
  28 2   H  1S          0.00000  -0.12172   0.00681   0.01322   0.00000
  29        2S          0.00000  -0.18092   0.02825   0.02150   0.00000
  30        3S          0.00000  -0.10357  -0.19237   0.32820   0.00000
  31        4S          0.00000  -0.04948  -1.25703   2.93823   0.00000
  32        5PX         0.00000   0.00225  -0.00121   0.00233   0.00000
  33        5PY         0.00000   0.00118  -0.00113   0.00065   0.00000
  34        5PZ         0.00012   0.00000   0.00000   0.00000   0.00064
  35        6PX         0.00000   0.00700  -0.00930   0.01152   0.00000
  36        6PY         0.00000   0.00833  -0.00452   0.00470   0.00000
  37        6PZ         0.00047   0.00000   0.00000   0.00000   0.00501
  38        7PX         0.00000  -0.00060  -0.01684   0.07174   0.00000
  39        7PY         0.00000  -0.01212  -0.04359   0.01379   0.00000
  40        7PZ        -0.00457   0.00000   0.00000   0.00000   0.02796
  41 3   C  1S          0.00000  -0.01746  -0.02679  -0.01890   0.00000
  42        2S          0.00000  -0.02799  -0.04359  -0.03075   0.00000
  43        2PX         0.00000   0.10712  -0.02603  -0.02638   0.00000
  44        2PY         0.00000  -0.06440   0.03884  -0.01603   0.00000
  45        2PZ        -0.08936   0.00000   0.00000   0.00000  -0.07799
  46        3S          0.00000   0.08408   0.12536   0.08993   0.00000
  47        3PX         0.00000   0.15354  -0.04081  -0.04176   0.00000
  48        3PY         0.00000  -0.09815   0.05812  -0.02135   0.00000
  49        3PZ        -0.13153   0.00000   0.00000   0.00000  -0.10497
  50        4S          0.00000   0.01730   0.69667   0.41520   0.00000
  51        4PX         0.00000   0.11393  -0.15483  -0.09882   0.00000
  52        4PY         0.00000  -0.07686   0.04320   0.08030   0.00000
  53        4PZ        -0.09888   0.00000   0.00000   0.00000   0.14406
  54        5S          0.00000   0.07580   4.16320   5.11830   0.00000
  55        5PX         0.00000   0.02735  -0.14516   0.40689   0.00000
  56        5PY         0.00000  -0.01821  -0.03878  -0.50367   0.00000
  57        5PZ         0.01673   0.00000   0.00000   0.00000  -1.44360
  58        6D 0        0.00000  -0.00340  -0.00019   0.00142   0.00000
  59        6D+1        0.00147   0.00000   0.00000   0.00000   0.00045
  60        6D-1       -0.00802   0.00000   0.00000   0.00000  -0.00223
  61        6D+2        0.00000   0.00167   0.00191  -0.00404   0.00000
  62        6D-2        0.00000  -0.00783  -0.00035   0.00157   0.00000
  63        7D 0        0.00000  -0.00651  -0.00748   0.01365   0.00000
  64        7D+1       -0.00388   0.00000   0.00000   0.00000   0.00255
  65        7D-1       -0.01128   0.00000   0.00000   0.00000   0.05303
  66        7D+2        0.00000  -0.00521   0.01237  -0.01640   0.00000
  67        7D-2        0.00000  -0.00930   0.00585  -0.00072   0.00000
  68 4   H  1S         -0.06778  -0.02134   0.00022   0.00510  -0.00929
  69        2S         -0.08900  -0.02141  -0.00903  -0.00708  -0.08549
  70        3S         -0.05169  -0.00876  -0.48033  -0.39387  -0.27639
  71        4S         -0.03010   0.00300  -1.29520  -0.60675   3.26480
  72        5PX        -0.00020   0.00065  -0.00028   0.00038  -0.00008
  73        5PY         0.00141   0.00016  -0.00086  -0.00027   0.00121
  74        5PZ         0.00136   0.00068  -0.00140  -0.00033   0.00123
  75        6PX         0.00099   0.00544  -0.00107  -0.00022   0.00094
  76        6PY         0.00379  -0.00330  -0.00542  -0.00357   0.00867
  77        6PZ         0.00106   0.00099  -0.00921  -0.00279   0.00944
  78        7PX         0.00076  -0.00184  -0.01174   0.02837  -0.00919
  79        7PY        -0.00216  -0.00038   0.00976   0.02629   0.08679
  80        7PZ         0.00333  -0.00249   0.00491   0.03813   0.11341
  81 5   H  1S          0.06778  -0.02134   0.00022   0.00510   0.00929
  82        2S          0.08900  -0.02141  -0.00903  -0.00708   0.08549
  83        3S          0.05169  -0.00876  -0.48033  -0.39387   0.27639
  84        4S          0.03010   0.00300  -1.29520  -0.60675  -3.26480
  85        5PX         0.00020   0.00065  -0.00028   0.00038   0.00008
  86        5PY        -0.00141   0.00016  -0.00086  -0.00027  -0.00121
  87        5PZ         0.00136  -0.00068   0.00140   0.00033   0.00123
  88        6PX        -0.00099   0.00544  -0.00107  -0.00022  -0.00094
  89        6PY        -0.00379  -0.00330  -0.00542  -0.00357  -0.00867
  90        6PZ         0.00106  -0.00099   0.00921   0.00279   0.00944
  91        7PX        -0.00076  -0.00184  -0.01174   0.02837   0.00919
  92        7PY         0.00216  -0.00038   0.00976   0.02629  -0.08679
  93        7PZ         0.00333   0.00249  -0.00491  -0.03813   0.11341
  94 6   H  1S          0.00000  -0.03680   0.00443  -0.00402   0.00000
  95        2S          0.00000  -0.05151  -0.02981  -0.00162   0.00000
  96        3S          0.00000  -0.03034  -0.64513  -0.36376   0.00000
  97        4S          0.00000   0.00398  -0.86115  -1.94308   0.00000
  98        5PX         0.00000  -0.00010   0.00061   0.00158   0.00000
  99        5PY         0.00000  -0.00125   0.00091   0.00038   0.00000
 100        5PZ        -0.00056   0.00000   0.00000   0.00000  -0.00021
 101        6PX         0.00000   0.00074   0.00376   0.00981   0.00000
 102        6PY         0.00000  -0.00360   0.00627   0.00327   0.00000
 103        6PZ        -0.00496   0.00000   0.00000   0.00000  -0.00488
 104        7PX         0.00000  -0.00457  -0.06655   0.03863   0.00000
 105        7PY         0.00000   0.00837  -0.03353  -0.00240   0.00000
 106        7PZ        -0.00368   0.00000   0.00000   0.00000   0.00988
 107 7   F  1S         -0.00210  -0.00048  -0.00547   0.00142  -0.00466
 108        2S         -0.00349  -0.00079  -0.00913   0.00236  -0.00783
 109        2PX         0.04436   0.16767  -0.01560  -0.00727   0.00824
 110        2PY        -0.13116  -0.00153  -0.00261   0.00818   0.00961
 111        2PZ         0.16524   0.00110  -0.00576   0.00032  -0.01582
 112        3S          0.01072   0.00254   0.03128  -0.00796   0.02757
 113        3PX         0.06367   0.23907  -0.02289  -0.00902   0.01357
 114        3PY        -0.18652  -0.00168  -0.00350   0.01206   0.01354
 115        3PZ         0.23819   0.00149  -0.00698  -0.00021  -0.02434
 116        4S          0.02152   0.00579   0.05429  -0.01392   0.04025
 117        4PX         0.05724   0.22201  -0.02118  -0.01781   0.00507
 118        4PY        -0.16837  -0.00294  -0.00500   0.01354   0.02433
 119        4PZ         0.21606   0.00339  -0.01704   0.00805  -0.00969
 120        5S         -0.00892   0.00874  -0.15332   0.09143   0.16353
 121        5PX         0.01085   0.05088  -0.00963   0.09569   0.03649
 122        5PY        -0.02836   0.00008  -0.06555   0.03996   0.02446
 123        5PZ         0.01812   0.00256  -0.01746   0.01001  -0.00597
 124        6D 0        0.00074  -0.00004  -0.00007   0.00011  -0.00007
 125        6D+1        0.00016   0.00020   0.00032  -0.00039  -0.00006
 126        6D-1        0.00035  -0.00001   0.00020  -0.00021  -0.00016
 127        6D+2        0.00035  -0.00001  -0.00019   0.00034   0.00006
 128        6D-2        0.00013  -0.00008   0.00017  -0.00031  -0.00010
 129        7D 0        0.01179   0.00043  -0.00094   0.00100  -0.00094
 130        7D+1        0.00194   0.00366   0.00193  -0.00213   0.00039
 131        7D-1        0.00337   0.00031   0.00099  -0.00067   0.00170
 132        7D+2        0.00578  -0.00056  -0.00100   0.00206  -0.00008
 133        7D-2        0.00149   0.00140   0.00137  -0.00145  -0.00137
 134 8   F  1S          0.00210  -0.00048  -0.00547   0.00142   0.00466
 135        2S          0.00349  -0.00079  -0.00913   0.00236   0.00783
 136        2PX        -0.04436   0.16767  -0.01560  -0.00727  -0.00824
 137        2PY         0.13116  -0.00153  -0.00261   0.00818  -0.00961
 138        2PZ         0.16524  -0.00110   0.00576  -0.00032  -0.01582
 139        3S         -0.01072   0.00254   0.03128  -0.00796  -0.02757
 140        3PX        -0.06367   0.23907  -0.02289  -0.00902  -0.01357
 141        3PY         0.18652  -0.00168  -0.00350   0.01206  -0.01354
 142        3PZ         0.23819  -0.00149   0.00698   0.00021  -0.02434
 143        4S         -0.02152   0.00579   0.05429  -0.01392  -0.04025
 144        4PX        -0.05724   0.22201  -0.02118  -0.01781  -0.00507
 145        4PY         0.16837  -0.00294  -0.00500   0.01354  -0.02433
 146        4PZ         0.21606  -0.00339   0.01704  -0.00805  -0.00969
 147        5S          0.00892   0.00874  -0.15332   0.09143  -0.16353
 148        5PX        -0.01085   0.05088  -0.00963   0.09569  -0.03649
 149        5PY         0.02836   0.00008  -0.06555   0.03996  -0.02446
 150        5PZ         0.01812  -0.00256   0.01746  -0.01001  -0.00597
 151        6D 0       -0.00074  -0.00004  -0.00007   0.00011   0.00007
 152        6D+1        0.00016  -0.00020  -0.00032   0.00039  -0.00006
 153        6D-1        0.00035   0.00001  -0.00020   0.00021  -0.00016
 154        6D+2       -0.00035  -0.00001  -0.00019   0.00034  -0.00006
 155        6D-2       -0.00013  -0.00008   0.00017  -0.00031   0.00010
 156        7D 0       -0.01179   0.00043  -0.00094   0.00100   0.00094
 157        7D+1        0.00194  -0.00366  -0.00193   0.00213   0.00039
 158        7D-1        0.00337  -0.00031  -0.00099   0.00067   0.00170
 159        7D+2       -0.00578  -0.00056  -0.00100   0.00206   0.00008
 160        7D-2       -0.00149   0.00140   0.00137  -0.00145   0.00137
                          21        22        23        24        25
                           V         V         V         V         V
     Eigenvalues --     0.03631   0.05183   0.05698   0.06988   0.08833
   1 1   C  1S          0.00497   0.00000   0.01972  -0.01414   0.01217
   2        2S          0.00859   0.00000   0.03137  -0.02377   0.02110
   3        2PX        -0.00133   0.00000  -0.02714  -0.05535  -0.01496
   4        2PY        -0.02718   0.00000   0.04671   0.01483  -0.01829
   5        2PZ         0.00000   0.12796   0.00000   0.00000   0.00000
   6        3S         -0.04806   0.00000  -0.06022   0.10060  -0.09493
   7        3PX        -0.00415   0.00000  -0.03410  -0.07904  -0.02602
   8        3PY        -0.03373   0.00000   0.06606   0.01539  -0.02782
   9        3PZ         0.00000   0.20404   0.00000   0.00000   0.00000
  10        4S          0.21404   0.00000  -0.82419  -0.03133   0.53618
  11        4PX         0.07093   0.00000  -0.04094   0.09881   0.43904
  12        4PY        -0.12323   0.00000   0.39544   0.14317   0.22621
  13        4PZ         0.00000   0.54332   0.00000   0.00000   0.00000
  14        5S         -2.38714   0.00000  -0.61497   3.87886   4.93088
  15        5PX         0.34742   0.00000  -1.25990  -0.22511   2.24355
  16        5PY        -0.91203   0.00000   1.16643   0.16014   3.28334
  17        5PZ         0.00000   1.77310   0.00000   0.00000   0.00000
  18        6D 0        0.00071   0.00000   0.00463  -0.00098  -0.00046
  19        6D+1        0.00000  -0.00073   0.00000   0.00000   0.00000
  20        6D-1        0.00000   0.01763   0.00000   0.00000   0.00000
  21        6D+2       -0.00034   0.00000  -0.00987   0.00256   0.00140
  22        6D-2       -0.00241   0.00000   0.00041  -0.00012  -0.00283
  23        7D 0        0.00305   0.00000  -0.00814  -0.01063  -0.03449
  24        7D+1        0.00000   0.00235   0.00000   0.00000   0.00000
  25        7D-1        0.00000   0.02842   0.00000   0.00000   0.00000
  26        7D+2       -0.00101   0.00000  -0.02841   0.02987   0.00900
  27        7D-2       -0.00423   0.00000   0.01363   0.02982   0.02681
  28 2   H  1S         -0.01034   0.00000  -0.00584   0.00671   0.00958
  29        2S         -0.03632   0.00000   0.00387  -0.02559  -0.05094
  30        3S         -0.07931   0.00000   0.07207  -0.06317  -1.49486
  31        4S          1.04529   0.00000   1.90316   1.03356  -3.03090
  32        5PX         0.00063   0.00000   0.00063   0.00012   0.00113
  33        5PY         0.00003   0.00000   0.00153   0.00046   0.00056
  34        5PZ         0.00000   0.00149   0.00000   0.00000   0.00000
  35        6PX         0.00644   0.00000  -0.00383   0.00897   0.01000
  36        6PY        -0.00284   0.00000   0.01554  -0.00535  -0.00240
  37        6PZ         0.00000   0.02150   0.00000   0.00000   0.00000
  38        7PX         0.02106   0.00000   0.02703   0.03122   0.20784
  39        7PY         0.02811   0.00000  -0.00581   0.04512   0.10600
  40        7PZ         0.00000   0.01579   0.00000   0.00000   0.00000
  41 3   C  1S         -0.00245   0.00000   0.00293  -0.00562  -0.00198
  42        2S         -0.00414   0.00000   0.00507  -0.00869  -0.00343
  43        2PX         0.04172   0.00000   0.02165  -0.00639   0.01796
  44        2PY         0.05338   0.00000   0.03103   0.01261  -0.00719
  45        2PZ         0.00000   0.03237   0.00000   0.00000   0.00000
  46        3S          0.01567   0.00000  -0.02352   0.00999   0.01379
  47        3PX         0.05468   0.00000   0.03786   0.00192   0.02636
  48        3PY         0.07075   0.00000   0.04281   0.01654  -0.01163
  49        3PZ         0.00000   0.05231   0.00000   0.00000   0.00000
  50        4S         -0.01477   0.00000   0.09776   0.22324  -0.11097
  51        4PX        -0.16002   0.00000   0.14254   0.03227  -0.36279
  52        4PY        -0.24165   0.00000   0.14389  -0.03907  -0.74986
  53        4PZ         0.00000  -0.06730   0.00000   0.00000   0.00000
[...]
     24  0.149933D-02 -0.803227D-02  0.117133D-01  0.219309D-01
     25 -0.885680D-02  0.892440D-03  0.118670D-01  0.123993D-01  0.221485D-01
     26 -0.871822D-02 -0.803227D-02 -0.276394D-02 -0.129815D-01 -0.122955D-01
     27  0.967070D-03 -0.803227D-02 -0.119170D-01 -0.276394D-02 -0.117633D-01
     28 -0.938906D-02  0.892440D-03 -0.117633D-01 -0.122955D-01 -0.201405D-02
               26            27            28 
     26  0.219309D-01
     27  0.117133D-01  0.208664D-01
     28  0.123993D-01  0.118670D-01  0.221485D-01
 Leave Link  716 at Fri Sep  6 14:16:23 2024, MaxMem=  1073741824 cpu:               0.2 elap:               0.0
 (Enter /Users/asuyarger/Applications/G16/g16/l103.exe)

 GradGradGradGradGradGradGradGradGradGradGradGradGradGradGradGradGradGrad
 Berny optimization.
 Red2BG is reusing G-inverse.
 Internal  Forces:  Max     0.000002754 RMS     0.000000950
 Search for a local minimum.
 Step number   1 out of a maximum of    2
 All quantities printed in internal units (Hartrees-Bohrs-Radians)
 Second derivative matrix not updated -- analytic derivatives used.
 ITU=  0
     Eigenvalues ---    0.00230   0.04286   0.04289   0.05663   0.09487
     Eigenvalues ---    0.12710   0.13050   0.13487   0.16170   0.21738
     Eigenvalues ---    0.25674   0.31663   0.32827   0.33428   0.34198
     Eigenvalues ---    0.34243   0.34797   0.41895
 Angle between quadratic step and forces=  35.90 degrees.
 Linear search not attempted -- first point.
 Iteration  1 RMS(Cart)=  0.00000979 RMS(Int)=  0.00000000
 Iteration  2 RMS(Cart)=  0.00000000 RMS(Int)=  0.00000000
 ITry= 1 IFail=0 DXMaxC= 2.24D-05 DCOld= 1.00D+10 DXMaxT= 3.00D-01 DXLimC= 3.00D+00 Rises=F
 ClnCor:  largest displacement from symmetrization is 4.68D-12 for atom     8.
 Variable       Old X    -DE/DX   Delta X   Delta X   Delta X     New X
                                 (Linear)    (Quad)   (Total)
    R1        2.05962   0.00000   0.00000  -0.00000  -0.00000   2.05962
    R2        2.83792  -0.00000   0.00000  -0.00001  -0.00001   2.83791
    R3        2.59766   0.00000   0.00000   0.00001   0.00001   2.59767
    R4        2.59766   0.00000   0.00000   0.00001   0.00001   2.59767
    R5        2.05745  -0.00000   0.00000  -0.00000  -0.00000   2.05745
    R6        2.05745  -0.00000   0.00000  -0.00000  -0.00000   2.05745
    R7        2.05745   0.00000   0.00000   0.00000   0.00000   2.05746
    A1        2.00146   0.00000   0.00000   0.00002   0.00002   2.00148
    A2        1.87108  -0.00000   0.00000  -0.00000  -0.00000   1.87108
    A3        1.87108  -0.00000   0.00000  -0.00000  -0.00000   1.87108
    A4        1.92527  -0.00000   0.00000  -0.00000  -0.00000   1.92527
    A5        1.92527  -0.00000   0.00000  -0.00000  -0.00000   1.92527
    A6        1.86358  -0.00000   0.00000  -0.00001  -0.00001   1.86357
    A7        1.91603   0.00000   0.00000   0.00001   0.00001   1.91604
    A8        1.91603   0.00000   0.00000   0.00001   0.00001   1.91604
    A9        1.91073  -0.00000   0.00000  -0.00001  -0.00001   1.91072
   A10        1.90429  -0.00000   0.00000   0.00000   0.00000   1.90429
   A11        1.90835  -0.00000   0.00000  -0.00001  -0.00001   1.90834
   A12        1.90835  -0.00000   0.00000  -0.00001  -0.00001   1.90834
    D1       -1.04663  -0.00000   0.00000  -0.00001  -0.00001  -1.04664
    D2        1.04663   0.00000   0.00000   0.00001   0.00001   1.04664
    D3        3.14159   0.00000   0.00000  -0.00000   0.00000   3.14159
    D4        3.12225  -0.00000   0.00000  -0.00001  -0.00001   3.12224
    D5       -1.06767  -0.00000   0.00000   0.00000   0.00000  -1.06767
    D6        1.02729  -0.00000   0.00000  -0.00001  -0.00001   1.02728
    D7        1.06767   0.00000   0.00000  -0.00000  -0.00000   1.06767
    D8       -3.12225   0.00000   0.00000   0.00001   0.00001  -3.12224
    D9       -1.02729   0.00000   0.00000   0.00001   0.00001  -1.02728
         Item               Value     Threshold  Converged?
 Maximum Force            0.000003     0.000015     YES
 RMS     Force            0.000001     0.000010     YES
 Maximum Displacement     0.000022     0.000060     YES
 RMS     Displacement     0.000010     0.000040     YES
 Predicted change in Energy=-8.831340D-11
 Optimization completed.
    -- Stationary point found.
                           ----------------------------
                           !   Optimized Parameters   !
                           ! (Angstroms and Degrees)  !
 --------------------------                            --------------------------
 ! Name  Definition              Value          Derivative Info.                !
 --------------------------------------------------------------------------------
 ! R1    R(1,2)                  1.0899         -DE/DX =    0.0                 !
 ! R2    R(1,3)                  1.5018         -DE/DX =    0.0                 !
 ! R3    R(1,7)                  1.3746         -DE/DX =    0.0                 !
 ! R4    R(1,8)                  1.3746         -DE/DX =    0.0                 !
 ! R5    R(3,4)                  1.0888         -DE/DX =    0.0                 !
 ! R6    R(3,5)                  1.0888         -DE/DX =    0.0                 !
 ! R7    R(3,6)                  1.0888         -DE/DX =    0.0                 !
 ! A1    A(2,1,3)              114.6755         -DE/DX =    0.0                 !
 ! A2    A(2,1,7)              107.2052         -DE/DX =    0.0                 !
 ! A3    A(2,1,8)              107.2052         -DE/DX =    0.0                 !
 ! A4    A(3,1,7)              110.3101         -DE/DX =    0.0                 !
 ! A5    A(3,1,8)              110.3101         -DE/DX =    0.0                 !
 ! A6    A(7,1,8)              106.7751         -DE/DX =    0.0                 !
 ! A7    A(1,3,4)              109.7802         -DE/DX =    0.0                 !
 ! A8    A(1,3,5)              109.7802         -DE/DX =    0.0                 !
 ! A9    A(1,3,6)              109.4766         -DE/DX =    0.0                 !
 ! A10   A(4,3,5)              109.1078         -DE/DX =    0.0                 !
 ! A11   A(4,3,6)              109.3402         -DE/DX =    0.0                 !
 ! A12   A(5,3,6)              109.3402         -DE/DX =    0.0                 !
 ! D1    D(2,1,3,4)            -59.9676         -DE/DX =    0.0                 !
 ! D2    D(2,1,3,5)             59.9676         -DE/DX =    0.0                 !
 ! D3    D(2,1,3,6)            180.0            -DE/DX =    0.0                 !
 ! D4    D(7,1,3,4)            178.8919         -DE/DX =    0.0                 !
 ! D5    D(7,1,3,5)            -61.173          -DE/DX =    0.0                 !
 ! D6    D(7,1,3,6)             58.8594         -DE/DX =    0.0                 !
 ! D7    D(8,1,3,4)             61.173          -DE/DX =    0.0                 !
 ! D8    D(8,1,3,5)           -178.8919         -DE/DX =    0.0                 !
 ! D9    D(8,1,3,6)            -58.8594         -DE/DX =    0.0                 !
 --------------------------------------------------------------------------------
 GradGradGradGradGradGradGradGradGradGradGradGradGradGradGradGradGradGrad

 Leave Link  103 at Fri Sep  6 14:16:23 2024, MaxMem=  1073741824 cpu:               0.1 elap:               0.0
 (Enter /Users/asuyarger/Applications/G16/g16/l9999.exe)

 ----------------------------------------------------------------------

 Electric dipole moment (input orientation):
 (Debye = 10**-18 statcoulomb cm , SI units = C m)
                  (au)            (Debye)         (10**-30 SI)
   Tot        0.940579D+00      0.239071D+01      0.797456D+01
   x         -0.160650D+00     -0.408332D+00     -0.136205D+01
   y          0.926758D+00      0.235558D+01      0.785738D+01
   z          0.000000D+00      0.000000D+00      0.000000D+00

 Dipole polarizability, Alpha (input orientation).
 (esu units = cm**3 , SI units = C**2 m**2 J**-1)
 Alpha(0;0):
               (au)            (10**-24 esu)      (10**-40 SI)
   iso        0.289186D+02      0.428529D+01      0.476803D+01
   aniso      0.240097D+01      0.355787D+00      0.395866D+00
   xx         0.285537D+02      0.423122D+01      0.470787D+01
   yx        -0.134936D+01     -0.199955D+00     -0.222480D+00
   yy         0.290707D+02      0.430784D+01      0.479312D+01
   zx         0.000000D+00      0.000000D+00      0.000000D+00
   zy         0.000000D+00      0.000000D+00      0.000000D+00
   zz         0.291313D+02      0.431681D+01      0.480310D+01

 First dipole hyperpolarizability, Beta (input orientation).
 ||, _|_  parallel and perpendicular components, (z) with respect to z axis,
 vector components x,y,z.  Values do not include the 1/n! factor of 1/2.
 (esu units = statvolt**-1 cm**4 , SI units = C**3 m**3 J**-2)
 Beta(0;0,0):
               (au)            (10**-30 esu)      (10**-50 SI)
   || (z)     0.000000D+00      0.000000D+00      0.000000D+00
   _|_(z)     0.000000D+00      0.000000D+00      0.000000D+00
   x         -0.103440D+03     -0.893637D+00     -0.331665D+00
   y          0.283521D+03      0.244940D+01      0.909070D+00
   z          0.000000D+00      0.000000D+00      0.000000D+00
   ||         0.603602D+02      0.521465D+00      0.193536D+00
   xxx       -0.171077D+02     -0.147798D+00     -0.548536D-01
   xxy        0.121961D+02      0.105365D+00      0.391050D-01
   yxy       -0.771248D+01     -0.666298D-01     -0.247290D-01
   yyy        0.494146D+02      0.426904D+00      0.158441D+00
   xxz        0.000000D+00      0.000000D+00      0.000000D+00
   yxz        0.000000D+00      0.000000D+00      0.000000D+00
   yyz        0.000000D+00      0.000000D+00      0.000000D+00
   zxz       -0.965963D+01     -0.834517D-01     -0.309723D-01
   zyz        0.328962D+02      0.284198D+00      0.105477D+00
   zzz        0.000000D+00      0.000000D+00      0.000000D+00

 ----------------------------------------------------------------------

 Dipole orientation:
     6          0.62791003          0.10884592          0.25357949
     1          2.52865941          0.43833391          0.97511245
     6         -1.35560737         -0.23498961          2.25388715
     1         -0.88302206         -1.85419263          3.43200179
     1         -1.45558445          1.44880370          3.43200179
     1         -3.18219520         -0.55162196          1.36146082
     9          0.02702362          2.12088882         -1.27561789
     9          0.73929331         -1.98805057         -1.27561789

 Electric dipole moment (dipole orientation):
 (Debye = 10**-18 statcoulomb cm , SI units = C m)
                  (au)            (Debye)         (10**-30 SI)
   Tot        0.940579D+00      0.239071D+01      0.797456D+01
   x          0.000000D+00      0.000000D+00      0.000000D+00
   y          0.000000D+00      0.000000D+00      0.000000D+00
   z          0.940579D+00      0.239071D+01      0.797456D+01

 Dipole polarizability, Alpha (dipole orientation).
 (esu units = cm**3 , SI units = C**2 m**2 J**-1)
 Alpha(0;0):
               (au)            (10**-24 esu)      (10**-40 SI)
   iso        0.289186D+02      0.428529D+01      0.476803D+01
   aniso      0.240097D+01      0.355787D+00      0.395866D+00
   xx         0.281443D+02      0.417055D+01      0.464036D+01
   yx        -0.171100D+00     -0.253544D-01     -0.282106D-01
   yy         0.291016D+02      0.431242D+01      0.479821D+01
   zx        -0.116622D+01     -0.172817D+00     -0.192284D+00
   zy        -0.202161D+00     -0.299571D-01     -0.333318D-01
   zz         0.295098D+02      0.437290D+01      0.486551D+01

 First dipole hyperpolarizability, Beta (dipole orientation).
 ||, _|_  parallel and perpendicular components, (z) with respect to z axis,
 vector components x,y,z.  Values do not include the 1/n! factor of 1/2.
 (esu units = statvolt**-1 cm**4 , SI units = C**3 m**3 J**-2)
 Beta(0;0,0):
               (au)            (10**-30 esu)      (10**-50 SI)
   || (z)     0.594044D+02      0.513208D+00      0.190472D+00
   _|_(z)     0.198015D+02      0.171069D+00      0.634907D-01
   x         -0.527085D+02     -0.455360D+00     -0.169002D+00
   y         -0.913682D+01     -0.789350D-01     -0.292959D-01
   z          0.297022D+03      0.256604D+01      0.952360D+00
   ||         0.603602D+02      0.521465D+00      0.193536D+00
   xxx       -0.105872D+02     -0.914655D-01     -0.339465D-01
   xxy       -0.503352D+00     -0.434857D-02     -0.161393D-02
   yxy       -0.381357D+01     -0.329462D-01     -0.122277D-01
   yyy       -0.199298D+01     -0.172178D-01     -0.639020D-02
   xxz        0.133261D+02      0.115127D+00      0.427284D-01
   yxz       -0.359461D+01     -0.310546D-01     -0.115256D-01
   yyz        0.334396D+02      0.288892D+00      0.107219D+00
   zxz       -0.316868D+01     -0.273749D-01     -0.101599D-01
   zyz       -0.549279D+00     -0.474534D-02     -0.176119D-02
   zzz        0.522416D+02      0.451327D+00      0.167506D+00

 ----------------------------------------------------------------------
 1\1\GINC-JEFFSMACSTUDIO\Freq\RB3LYP\6-311++G(2d,3p)\C2H4F2\ROOT\06-Sep
 -2024\0\\#P Geom=AllCheck Guess=TCheck SCRF=Check GenChk RB3LYP/6-311+
 +G(2d,3p) Freq\\r152a HF 6-311++g(2d,3p) Opt Freq - Full\\0,1\C,0.3093
 563962,0.1898154856,0.\H,1.2499753083,0.7403813199,0.\C,-0.9210696923,
 1.0508287855,0.\H,-0.9289633786,1.6821892699,0.8869684287\H,-0.9289633
 786,1.6821892699,-0.8869684287\H,-1.8069981443,0.4179618181,0.\F,0.318
 0529447,-0.6299614744,-1.1033919382\F,0.3180529447,-0.6299614744,1.103
 3919382\\Version=EM64M-G16RevA.03\State=1-A'\HF=-278.4110326\RMSD=1.56
 7e-09\RMSF=1.748e-06\ZeroPoint=0.0601188\Thermal=0.0644509\Dipole=-0.1
 606502,0.9267582,0.\DipoleDeriv=0.8208576,-0.1653268,0.,-0.2119661,1.1
 766446,0.,0.,0.,1.4361523,-0.1173915,-0.0800913,0.,-0.0143518,-0.03343
 5,0.,0.,0.,0.0095351,-0.1557598,0.1758617,0.,0.0877909,-0.0430941,0.,0
 .,0.,0.0390678,0.0611266,0.002631,-0.0218763,0.0099904,0.0264923,-0.06
 97323,-0.0021069,-0.0885734,-0.0275779,0.0611266,0.002631,0.0218763,0.
 0099904,0.0264923,0.0697323,0.0021069,0.0885734,-0.0275779,-0.0297674,
 -0.0347762,0.,-0.0736706,0.002326,0.,0.,0.,0.09045,-0.3200961,0.049535
 3,0.023384,0.0961084,-0.5777131,-0.3881515,0.0688143,-0.2900884,-0.760
 0247,-0.3200961,0.0495353,-0.023384,0.0961084,-0.5777131,0.3881515,-0.
 0688143,0.2900884,-0.7600247\Polar=28.5536775,-1.3493607,29.0707419,0.
 ,0.,29.1312977\PolarDeriv=-3.6899119,-3.2052862,-0.3148941,0.,0.,0.041
 1459,-5.7733578,-1.7880098,-0.1267886,0.,-0.0000002,2.0976211,-0.00000
 09,0.0000006,-0.0000001,-0.994123,3.2004403,0.0000001,7.3093683,2.2884
 049,2.0421334,0.,0.,1.4070866,3.349948,2.0882192,2.5861216,0.,0.,0.503
 7883,0.0000001,0.,0.,1.2985541,0.4469462,0.,2.6958661,3.8057701,0.5048
 893,0.,0.,0.2114742,4.5699131,0.7947674,-1.0968218,0.,0.,-4.9580797,0.
 ,-0.0000001,0.0000002,0.523956,-5.1503701,0.,-0.4981059,0.4030918,-0.0
 840013,0.9405641,-0.1280284,-0.1615054,0.6151052,-0.6277775,3.6548043,
 -0.2843032,2.1625481,2.9072037,1.4705879,-0.4513961,2.8494254,-0.62833
 01,3.0157115,4.8788202,-0.4981059,0.4030918,-0.0840013,-0.9405641,0.12
 80284,-0.1615054,0.6151052,-0.6277775,3.6548043,0.2843032,-2.1625481,2
 .9072037,-1.4705879,0.4513961,-2.8494254,-0.6283301,3.0157115,-4.87882
 02,-6.4607028,-2.0322583,-2.0760841,0.,0.,-1.2691335,-3.7182738,-1.799
 3368,-2.2314179,0.,0.,-0.4217854,0.,0.,0.,-1.1470125,0.1356454,0.,0.57
 07957,-0.8314068,0.005979,-1.4550826,0.044234,-0.033781,0.1707799,0.97
 99577,-3.220351,0.4730194,-2.2036176,-1.5179759,0.1234097,0.926318,-1.
 1691088,0.7876427,-2.3320425,-5.0703613,0.5707957,-0.8314068,0.005979,
 1.4550826,-0.044234,-0.033781,0.1707799,0.9799577,-3.220351,-0.4730194
 ,2.2036176,-1.5179759,-0.1234097,-0.926318,1.1691088,0.7876427,-2.3320
 425,5.0703613\HyperPolar=-17.1077442,12.196078,-7.7124787,49.414591,0.
 ,0.,0.,-9.6596348,32.8962304,0.\Quadrupole=1.3828059,0.2710501,-1.6538
 561,0.391652,0.,0.\PG=CS [SG(C2H2),X(H2F2)]\NImag=0\\0.63210370,0.0581
 2263,0.53273718,0.,0.,0.40540967,-0.26141734,-0.10899894,0.,0.26691703
 ,-0.09834108,-0.10864987,0.,0.11880602,0.13084911,0.,0.,-0.04396194,0.
 ,0.,0.06576914,-0.18975544,0.05684213,0.,-0.01885527,0.01722834,0.,0.5
 1965063,0.04216807,-0.10991999,0.,-0.01203936,0.01299425,0.,0.04343935
 ,0.55646357,0.,0.,-0.06968117,0.,0.,0.00521647,0.,0.,0.58821971,0.0034
 0145,0.01315543,0.02393490,0.00042439,-0.00113932,-0.00056193,-0.04938
 233,0.00052630,-0.00182752,0.04902737,-0.00425904,-0.01173075,-0.01638
 762,0.00030680,0.00048802,0.00064407,0.00191948,-0.13624571,-0.1249712
 9,-0.00306220,0.14555089,-0.00075610,0.00122509,-0.00284862,0.00053105
 ,-0.00012732,0.00034312,0.00162248,-0.12782748,-0.22484521,-0.00123453
 ,0.13962716,0.24217545,0.00340145,0.01315543,-0.02393490,0.00042439,-0
 .00113932,0.00056193,-0.04938233,0.00052630,0.00182752,-0.00130825,-0.
 00063578,0.00038746,0.04902737,-0.00425904,-0.01173076,0.01638762,0.00
 030680,0.00048802,-0.00064407,0.00191948,-0.13624572,0.12497129,-0.000
 63578,0.01315777,-0.01548924,-0.00306220,0.14555089,0.00075610,-0.0012
 2509,-0.00284862,-0.00053105,0.00012732,0.00034312,-0.00162248,0.12782
 748,-0.22484521,-0.00038746,0.01548924,-0.01925284,0.00123453,-0.13962
 716,0.24217545,-0.03031942,-0.02034964,0.,-0.00249479,0.00415846,0.,-0
 .22253658,-0.12499010,0.,0.00191942,0.00155392,-0.00060067,0.00191942,
 0.00155392,0.00060067,0.24360921,0.01941071,0.01235052,0.,0.00315132,-
 0.00219697,0.,-0.12871677,-0.14078752,0.,-0.01408463,-0.01024312,0.001
 51434,-0.01408463,-0.01024312,-0.00151434,0.13797615,0.14799706,0.,0.,
 -0.00174966,0.,0.,0.00086378,0.,0.,-0.04661033,-0.02231558,-0.01415415
 ,0.00122817,0.02231558,0.01415415,0.00122817,0.,0.,0.04486555,-0.07870
 719,-0.00596352,-0.00462583,0.00750079,-0.01978656,-0.02425188,0.00513
 066,0.02518472,0.02734038,-0.00491144,0.00462992,0.00011722,0.00082938
 ,-0.00045309,0.00006690,0.00395137,-0.00182608,0.00011278,0.05658590,-
 0.00642112,-0.15152817,-0.07660734,-0.00076633,-0.01698629,-0.02909571
 ,0.00368400,-0.02312944,-0.03252716,0.00679286,-0.00220671,0.00083188,
 -0.00155267,0.00122962,-0.00024557,0.00004865,0.00156157,0.00035766,-0
 .00313995,0.16466426,-0.00434703,-0.09155025,-0.14215983,-0.00324232,-
 0.01789842,-0.01428684,0.00418336,-0.01645139,-0.01372713,0.00269421,-
 0.00164712,0.00210787,0.00030209,-0.00139970,0.00109205,-0.00039102,0.
 00129506,0.00008716,0.00102057,0.13246902,0.24034343,-0.07870719,-0.00
 596353,0.00462583,0.00750079,-0.01978656,0.02425188,0.00513066,0.02518
 472,-0.02734038,0.00082938,-0.00045309,-0.00006690,-0.00491144,0.00462
 992,-0.00011722,0.00395136,-0.00182608,-0.00011278,0.00962055,0.001354
 56,-0.00021986,0.05658590,-0.00642112,-0.15152817,0.07660735,-0.000766
 33,-0.01698629,0.02909571,0.00368400,-0.02312944,0.03252715,-0.0015526
 7,0.00122962,0.00024557,0.00679286,-0.00220671,-0.00083188,0.00004864,
 0.00156157,-0.00035766,0.00135456,0.02639514,-0.00481721,-0.00313995,0
 .16466426,0.00434703,0.09155025,-0.14215984,0.00324232,0.01789842,-0.0
 1428683,-0.00418337,0.01645139,-0.01372713,-0.00030209,0.00139970,0.00
 109205,-0.00269421,0.00164712,0.00210787,0.00039102,-0.00129505,0.0000
 8716,0.00021986,0.00481721,-0.07345671,-0.00102057,-0.13246902,0.24034
 343\\0.00000202,-0.00000569,0.,-0.00000073,0.00000056,0.,-0.00000485,0
 .00000097,0.,0.00000101,0.00000025,-0.00000001,0.00000101,0.00000025,0
 .00000001,0.00000103,0.00000073,0.,0.00000026,0.00000146,0.00000131,0.
 00000026,0.00000146,-0.00000131\\\@


 FROM AN ANONYMOUS WRITER, ON PERSPECTIVE:

 MAN, DESPITE HIS ARTISTIC PRETENSIONS, HIS SOPHISTICATION AND MANY 
 ACCOMPLISHMENTS, OWES THE FACT OF HIS EXISTENCE TO A SIX-INCH LAYER OF 
 TOPSOIL AND THE FACT THAT IT RAINS.
 Job cpu time:       0 days  0 hours  0 minutes 23.6 seconds.
 Elapsed time:       0 days  0 hours  0 minutes 23.0 seconds.
 File lengths (MBytes):  RWF=     22 Int=      0 D2E=      0 Chk=      3 Scr=      1
 Normal termination of Gaussian 16 at Fri Sep  6 14:16:23 2024.
