 Entering Gaussian System, Link 0=g16
 Input=/Users/asuyarger/Downloads/r152a_PM6_Opt_Freq_Full.gjf
 Output=/Users/asuyarger/Downloads/r152a_PM6_Opt_Freq_Full.log
 Initial command:
 /Users/asuyarger/Applications/G16/g16/l1.exe "/Users/asuyarger/Applications/G16/scratch/Gau-91234.inp" -scrdir="/Users/asuyarger/Applications/G16/scratch/"
 Entering Link 1 = /Users/asuyarger/Applications/G16/g16/l1.exe PID=     91235.
  
 Copyright (c) 1988,1990,1992,1993,1995,1998,2003,2009,2016,
            Gaussian, Inc.  All Rights Reserved.
  
 This is part of the Gaussian(R) 16 program.  It is based on
 the Gaussian(R) 09 system (copyright 2009, Gaussian, Inc.),
 the Gaussian(R) 03 system (copyright 2003, Gaussian, Inc.),
 the Gaussian(R) 98 system (copyright 1998, Gaussian, Inc.),
 the Gaussian(R) 94 system (copyright 1995, Gaussian, Inc.),
 the Gaussian 92(TM) system (copyright 1992, Gaussian, Inc.),
 the Gaussian 90(TM) system (copyright 1990, Gaussian, Inc.),
 the Gaussian 88(TM) system (copyright 1988, Gaussian, Inc.),
 the Gaussian 86(TM) system (copyright 1986, Carnegie Mellon
 University), and the Gaussian 82(TM) system (copyright 1983,
 Carnegie Mellon University). Gaussian is a federally registered
 trademark of Gaussian, Inc.
  
 This software contains proprietary and confidential information,
 including trade secrets, belonging to Gaussian, Inc.
  
 This software is provided under written license and may be
 used, copied, transmitted, or stored only in accord with that
 written license.
  
 The following legend is applicable only to US Government
 contracts under FAR:
  
                    RESTRICTED RIGHTS LEGEND
  
 Use, reproduction and disclosure by the US Government is
 subject to restrictions as set forth in subparagraphs (a)
 and (c) of the Commercial Computer Software - Restricted
 Rights clause in FAR 52.227-19.
  
 Gaussian, Inc.
 340 Quinnipiac St., Bldg. 40, Wallingford CT 06492
  
  
 ---------------------------------------------------------------
 Warning -- This program may not be used in any manner that
 competes with the business of Gaussian, Inc. or will provide
 assistance to any competitor of Gaussian, Inc.  The licensee
 of this program is prohibited from giving any competitor of
 Gaussian, Inc. access to this program.  By using this program,
 the user acknowledges that Gaussian, Inc. is engaged in the
 business of creating and licensing software in the field of
 computational chemistry and represents and warrants to the
 licensee that it is not a competitor of Gaussian, Inc. and that
 it will not use this program in any manner prohibited above.
 ---------------------------------------------------------------
  

 Cite this work as:
 Gaussian 16, Revision A.03,
 M. J. Frisch, G. W. Trucks, H. B. Schlegel, G. E. Scuseria, 
 M. A. Robb, J. R. Cheeseman, G. Scalmani, V. Barone, 
 G. A. Petersson, H. Nakatsuji, X. Li, M. Caricato, A. V. Marenich, 
 J. Bloino, B. G. Janesko, R. Gomperts, B. Mennucci, H. P. Hratchian, 
 J. V. Ortiz, A. F. Izmaylov, J. L. Sonnenberg, D. Williams-Young, 
 F. Ding, F. Lipparini, F. Egidi, J. Goings, B. Peng, A. Petrone, 
 T. Henderson, D. Ranasinghe, V. G. Zakrzewski, J. Gao, N. Rega, 
 G. Zheng, W. Liang, M. Hada, M. Ehara, K. Toyota, R. Fukuda, 
 J. Hasegawa, M. Ishida, T. Nakajima, Y. Honda, O. Kitao, H. Nakai, 
 T. Vreven, K. Throssell, J. A. Montgomery, Jr., J. E. Peralta, 
 F. Ogliaro, M. J. Bearpark, J. J. Heyd, E. N. Brothers, K. N. Kudin, 
 V. N. Staroverov, T. A. Keith, R. Kobayashi, J. Normand, 
 K. Raghavachari, A. P. Rendell, J. C. Burant, S. S. Iyengar, 
 J. Tomasi, M. Cossi, J. M. Millam, M. Klene, C. Adamo, R. Cammi, 
 J. W. Ochterski, R. L. Martin, K. Morokuma, O. Farkas, 
 J. B. Foresman, and D. J. Fox, Gaussian, Inc., Wallingford CT, 2016.
 
 ******************************************
 Gaussian 16:  EM64M-G16RevA.03 25-Dec-2016
                 6-Sep-2024 
 ******************************************
 %nprocshared=8
 Will use up to    8 processors via shared memory.
 %mem=8GB
 %chk=r152a_PM6_Opt_Freq_Full.chk
 ----------------------------------------------------------------------
 #p opt=tight freq pm6 guess=save pop=(hirshfeld,full) geom=connectivit
 y polar
 ----------------------------------------------------------------------
 1/7=10,18=20,19=15,26=1,38=1,57=2/1,3;
 2/9=110,12=2,17=6,18=5,40=1/2;
 3/5=2,25=1,41=3900000,71=1/1,2,3;
 4/35=1/1;
 5/5=2,35=1,38=5,98=1/2;
 6/7=3,28=1,79=1/1;
 7//1,2,3,16;
 1/7=10,18=20,19=15,26=1/3(2);
 2/9=110/2;
 99//99;
 2/9=110/2;
 3/5=2,25=1,41=3900000,71=1,135=20/1,2,3;
 4/5=5,16=3,35=1/1;
 5/5=2,35=1,38=5,98=1/2;
 7//1,2,3,16;
 1/7=10,18=20,19=15,26=1/3(-5);
 2/9=110/2;
 6/7=3,19=2,28=1,79=1/1;
 99/9=1/99;
 Leave Link    1 at Fri Sep  6 14:09:12 2024, MaxMem=  1073741824 cpu:               0.2 elap:               0.0
 (Enter /Users/asuyarger/Applications/G16/g16/l101.exe)
 -------------------------------
 r152a PM6 Opt Freq - Full - NBO
 -------------------------------
 Symbolic Z-matrix:
 Charge =  0 Multiplicity = 1
 C                     0.1537   -0.35262   0.00201 
 H                     0.51044   0.15173  -0.87164 
 C                     0.66704   0.37333   1.25942 
 H                     1.73704   0.37325   1.25946 
 H                     0.31045   1.38217   1.25937 
 H                     0.3103   -0.13102   2.13307 
 F                    -1.1963   -0.35252   0.00196 
 F                     0.6036   -1.62545   0.00207 
 
 ITRead=  0  0  0  0  0  0  0  0
 MicOpt= -1 -1 -1 -1 -1 -1 -1 -1
 NAtoms=      8 NQM=        8 NQMF=       0 NMMI=      0 NMMIF=      0
                NMic=       0 NMicF=      0.
                    Isotopes and Nuclear Properties:
 (Nuclear quadrupole moments (NQMom) in fm**2, nuclear magnetic moments (NMagM)
  in nuclear magnetons)

  Atom         1           2           3           4           5           6           7           8
 IAtWgt=          12           1          12           1           1           1          19          19
 AtmWgt=  12.0000000   1.0078250  12.0000000   1.0078250   1.0078250   1.0078250  18.9984033  18.9984033
 NucSpn=           0           1           0           1           1           1           1           1
 AtZEff=  -0.0000000  -0.0000000  -0.0000000  -0.0000000  -0.0000000  -0.0000000  -0.0000000  -0.0000000
 NQMom=    0.0000000   0.0000000   0.0000000   0.0000000   0.0000000   0.0000000   0.0000000   0.0000000
 NMagM=    0.0000000   2.7928460   0.0000000   2.7928460   2.7928460   2.7928460   2.6288670   2.6288670
 AtZNuc=   6.0000000   1.0000000   6.0000000   1.0000000   1.0000000   1.0000000   9.0000000   9.0000000
 Leave Link  101 at Fri Sep  6 14:09:12 2024, MaxMem=  1073741824 cpu:               1.2 elap:               0.2
 (Enter /Users/asuyarger/Applications/G16/g16/l103.exe)

 GradGradGradGradGradGradGradGradGradGradGradGradGradGradGradGradGradGrad
 Berny optimization.
 Initialization pass.
                           ----------------------------
                           !    Initial Parameters    !
                           ! (Angstroms and Degrees)  !
 --------------------------                            --------------------------
 ! Name  Definition              Value          Derivative Info.                !
 --------------------------------------------------------------------------------
 ! R1    R(1,2)                  1.07           estimate D2E/DX2                !
 ! R2    R(1,3)                  1.54           estimate D2E/DX2                !
 ! R3    R(1,7)                  1.35           estimate D2E/DX2                !
 ! R4    R(1,8)                  1.35           estimate D2E/DX2                !
 ! R5    R(3,4)                  1.07           estimate D2E/DX2                !
 ! R6    R(3,5)                  1.07           estimate D2E/DX2                !
 ! R7    R(3,6)                  1.07           estimate D2E/DX2                !
 ! A1    A(2,1,3)              109.4712         estimate D2E/DX2                !
 ! A2    A(2,1,7)              109.4712         estimate D2E/DX2                !
 ! A3    A(2,1,8)              109.4712         estimate D2E/DX2                !
 ! A4    A(3,1,7)              109.4712         estimate D2E/DX2                !
 ! A5    A(3,1,8)              109.4712         estimate D2E/DX2                !
 ! A6    A(7,1,8)              109.4712         estimate D2E/DX2                !
 ! A7    A(1,3,4)              109.4712         estimate D2E/DX2                !
 ! A8    A(1,3,5)              109.4712         estimate D2E/DX2                !
 ! A9    A(1,3,6)              109.4712         estimate D2E/DX2                !
 ! A10   A(4,3,5)              109.4712         estimate D2E/DX2                !
 ! A11   A(4,3,6)              109.4712         estimate D2E/DX2                !
 ! A12   A(5,3,6)              109.4712         estimate D2E/DX2                !
 ! D1    D(2,1,3,4)            -60.0            estimate D2E/DX2                !
 ! D2    D(2,1,3,5)             60.0            estimate D2E/DX2                !
 ! D3    D(2,1,3,6)            180.0            estimate D2E/DX2                !
 ! D4    D(7,1,3,4)            180.0            estimate D2E/DX2                !
 ! D5    D(7,1,3,5)            -60.0            estimate D2E/DX2                !
 ! D6    D(7,1,3,6)             60.0            estimate D2E/DX2                !
 ! D7    D(8,1,3,4)             60.0            estimate D2E/DX2                !
 ! D8    D(8,1,3,5)            180.0            estimate D2E/DX2                !
 ! D9    D(8,1,3,6)            -60.0            estimate D2E/DX2                !
 --------------------------------------------------------------------------------
 Trust Radius=3.00D-01 FncErr=1.00D-07 GrdErr=1.00D-07 EigMax=2.50D+02 EigMin=1.00D-04
 Number of steps in this run=     38 maximum allowed number of steps=    100.
 GradGradGradGradGradGradGradGradGradGradGradGradGradGradGradGradGradGrad

 Leave Link  103 at Fri Sep  6 14:09:12 2024, MaxMem=  1073741824 cpu:               0.0 elap:               0.0
 (Enter /Users/asuyarger/Applications/G16/g16/l202.exe)
                          Input orientation:                          
 ---------------------------------------------------------------------
 Center     Atomic      Atomic             Coordinates (Angstroms)
 Number     Number       Type             X           Y           Z
 ---------------------------------------------------------------------
      1          6           0        0.153698   -0.352625    0.002012
      2          1           0        0.510438    0.151726   -0.871639
      3          6           0        0.667037    0.373334    1.259417
      4          1           0        1.737037    0.373251    1.259460
      5          1           0        0.310448    1.382167    1.259374
      6          1           0        0.310296   -0.131017    2.133068
      7          9           0       -1.196302   -0.352521    0.001958
      8          9           0        0.603600   -1.625452    0.002066
 ---------------------------------------------------------------------
                    Distance matrix (angstroms):
                    1          2          3          4          5
     1  C    0.000000
     2  H    1.070000   0.000000
     3  C    1.540000   2.148263   0.000000
     4  H    2.148263   2.468846   1.070000   0.000000
     5  H    2.148263   2.468846   1.070000   1.747303   0.000000
     6  H    2.148263   3.024610   1.070000   1.747303   1.747303
     7  F    1.350000   1.982524   2.362224   3.273001   2.619262
     8  F    1.350000   1.982524   2.362224   2.619262   3.273001
                    6          7          8
     6  H    0.000000
     7  F    2.619262   0.000000
     8  F    2.619262   2.204541   0.000000
 Stoichiometry    C2H4F2
 Framework group  CS[SG(C2H2),X(H2F2)]
 Deg. of freedom    11
 Full point group                 CS      NOp   2
 Largest Abelian subgroup         CS      NOp   2
 Largest concise Abelian subgroup CS      NOp   2
                         Standard orientation:                         
 ---------------------------------------------------------------------
 Center     Atomic      Atomic             Coordinates (Angstroms)
 Number     Number       Type             X           Y           Z
 ---------------------------------------------------------------------
      1          6           0        0.332842    0.140941   -0.000000
      2          1           0        1.206494    0.758706   -0.000000
      3          6           0       -0.924562    1.030061   -0.000000
      4          1           0       -0.924562    1.647826    0.873651
      5          1           0       -0.924562    1.647826   -0.873651
      6          1           0       -1.798214    0.412296   -0.000000
      7          9           0        0.332842   -0.638481   -1.102270
      8          9           0        0.332842   -0.638481    1.102270
 ---------------------------------------------------------------------
 Rotational constants (GHZ):           9.4549941           8.9776407           5.1437408
 Leave Link  202 at Fri Sep  6 14:09:12 2024, MaxMem=  1073741824 cpu:               0.0 elap:               0.0
 (Enter /Users/asuyarger/Applications/G16/g16/l301.exe)
 Standard basis: VSTO-6G (5D, 7F)
 Ernie: Thresh=  0.10000D-02 Tol=  0.10000D-05 Strict=F.
  NNHCO=     0 NNPyr=     0 NCTC=     0               EPep=         0.000000000
    EC=        64.405760343  ECS=         1.360609096   EG=         0.133236806
   EHC=         0.000421212  EAt=       -44.529382042  AtH=         0.936986650
 EPDDG=         0.000000000  ECC=        65.900027458 EAtT=        45.466368692
 There are    13 symmetry adapted cartesian basis functions of A'  symmetry.
 There are     7 symmetry adapted cartesian basis functions of A"  symmetry.
 There are    13 symmetry adapted basis functions of A'  symmetry.
 There are     7 symmetry adapted basis functions of A"  symmetry.
    20 basis functions,   120 primitive gaussians,    20 cartesian basis functions
    13 alpha electrons       13 beta electrons
       nuclear repulsion energy       111.3663961494 Hartrees.
 IExCor=    0 DFT=F Ex=HF Corr=None ExCW=0 ScaHFX=  1.000000
 ScaDFX=  1.000000  1.000000  1.000000  1.000000 ScalE2=  1.000000  1.000000
 IRadAn=      5 IRanWt=     -1 IRanGd=            0 ICorTp=0 IEmpDi=  4
 Integral buffers will be    131072 words long.
 Regular integral format.
 Two-electron integral symmetry is turned off.
 Leave Link  301 at Fri Sep  6 14:09:12 2024, MaxMem=  1073741824 cpu:               0.1 elap:               0.0
 (Enter /Users/asuyarger/Applications/G16/g16/l302.exe)
 Do NDO integrals.
 NPDir=0 NMtPBC=     1 NCelOv=     1 NCel=       1 NClECP=     1 NCelD=      1
         NCelK=      1 NCelE2=     1 NClLst=     1 CellRange=     0.0.
 One-electron integrals computed using PRISM.
 NBasis=    20 RedAO= T EigKep=  1.00D+00  NBF=    13     7
 NBsUse=    20 1.00D-06 EigRej= -1.00D+00 NBFU=    13     7
 Leave Link  302 at Fri Sep  6 14:09:12 2024, MaxMem=  1073741824 cpu:               0.3 elap:               0.1
 (Enter /Users/asuyarger/Applications/G16/g16/l303.exe)
 DipDrv:  MaxL=1.
 Leave Link  303 at Fri Sep  6 14:09:12 2024, MaxMem=  1073741824 cpu:               0.1 elap:               0.0
 (Enter /Users/asuyarger/Applications/G16/g16/l401.exe)
 Simple Huckel Guess.
 JPrj=0 DoOrth=F DoCkMO=F.
 Initial guess orbital symmetries:
       Occupied  (A') (A") (A') (A') (A') (A") (A') (A") (A') (A")
                 (A") (A') (A')
       Virtual   (A') (A") (A') (A") (A') (A') (A')
 The electronic state of the initial guess is 1-A'.
 Leave Link  401 at Fri Sep  6 14:09:12 2024, MaxMem=  1073741824 cpu:               0.1 elap:               0.0
 (Enter /Users/asuyarger/Applications/G16/g16/l502.exe)
 Keep J ints in memory in canonical form, NReq=860217.
 FoFCou: FMM=F IPFlag=           0 FMFlag=           0 FMFlg1=           0
         NFxFlg=           0 DoJE=F BraDBF=F KetDBF=F FulRan=T
         wScrn=  0.000000 ICntrl=       600 IOpCl=  2 I1Cent=           0 NGrid=           0
         NMat0=    1 NMatS0=     44 NMatT0=    0 NMatD0=    1 NMtDS0=    0 NMtDT0=    0
 Symmetry not used in FoFCou.
 Two-electron integral symmetry not used.
 Closed shell SCF:
 Using DIIS extrapolation, IDIIS=  1040.
 Overlap will be assumed to be unity.
 NGot=  1073741824 LenX=  1073680380 LenY=  1073679498
 Requested convergence on RMS density matrix=1.00D-08 within 128 cycles.
 Requested convergence on MAX density matrix=1.00D-06.
 Requested convergence on             energy=1.00D-06.
 No special actions if energy rises.

 Cycle   1  Pass 1  IDiag  1:
 E= 0.219122551714719    
 DIIS: error= 7.23D-02 at cycle   1 NSaved=   1.
 NSaved= 1 IEnMin= 1 EnMin= 0.219122551714719     IErMin= 1 ErrMin= 7.23D-02
 ErrMax= 7.23D-02  0.00D+00 EMaxC= 1.00D-01 BMatC= 1.48D-01 BMatP= 1.48D-01
 IDIUse=3 WtCom= 2.77D-01 WtEn= 7.23D-01
 Coeff-Com:  0.100D+01
 Coeff-En:   0.100D+01
 Coeff:      0.100D+01
 GapD=    2.000 DampG=2.000 DampE=0.500 DampFc=1.0000 IDamp=-1.
 RMSDP=2.35D-02 MaxDP=1.05D-01              OVMax= 0.00D+00

 Cycle   2  Pass 1  IDiag  1:
 E=-0.124938877200137     Delta-E=       -0.344061428915 Rises=F Damp=F
 DIIS: error= 2.02D-02 at cycle   2 NSaved=   2.
 NSaved= 2 IEnMin= 2 EnMin=-0.124938877200137     IErMin= 2 ErrMin= 2.02D-02
 ErrMax= 2.02D-02  0.00D+00 EMaxC= 1.00D-01 BMatC= 1.73D-02 BMatP= 1.48D-01
 IDIUse=3 WtCom= 7.98D-01 WtEn= 2.02D-01
 Coeff-Com: -0.434D+00 0.143D+01
 Coeff-En:   0.000D+00 0.100D+01
 Coeff:     -0.346D+00 0.135D+01
 RMSDP=1.23D-02 MaxDP=5.97D-02 DE=-3.44D-01 OVMax= 0.00D+00

 Cycle   3  Pass 1  IDiag  1:
 E=-0.175781720949757     Delta-E=       -0.050842843750 Rises=F Damp=F
 DIIS: error= 4.92D-03 at cycle   3 NSaved=   3.
 NSaved= 3 IEnMin= 3 EnMin=-0.175781720949757     IErMin= 3 ErrMin= 4.92D-03
 ErrMax= 4.92D-03  0.00D+00 EMaxC= 1.00D-01 BMatC= 6.45D-04 BMatP= 1.73D-02
 IDIUse=3 WtCom= 9.51D-01 WtEn= 4.92D-02
 Coeff-Com:  0.148D+00-0.560D+00 0.141D+01
 Coeff-En:   0.000D+00 0.000D+00 0.100D+01
 Coeff:      0.141D+00-0.532D+00 0.139D+01
 RMSDP=3.50D-03 MaxDP=2.40D-02 DE=-5.08D-02 OVMax= 0.00D+00

 Cycle   4  Pass 1  IDiag  3:
 E=-0.179170753866274     Delta-E=       -0.003389032917 Rises=F Damp=F
 DIIS: error= 1.81D-03 at cycle   4 NSaved=   4.
 NSaved= 4 IEnMin= 4 EnMin=-0.179170753866274     IErMin= 4 ErrMin= 1.81D-03
 ErrMax= 1.81D-03  0.00D+00 EMaxC= 1.00D-01 BMatC= 8.89D-05 BMatP= 6.45D-04
 IDIUse=3 WtCom= 9.82D-01 WtEn= 1.81D-02
 Coeff-Com: -0.226D-01 0.987D-01-0.782D+00 0.171D+01
 Coeff-En:   0.000D+00 0.000D+00 0.000D+00 0.100D+01
 Coeff:     -0.222D-01 0.969D-01-0.768D+00 0.169D+01
 Fock symm off for IB=2 I1=    1 I=   14 J=   12 Cut=1.00D-07 Err=9.47D-03
 Fock matrix is not symmetric: symmetry in diagonalization turned off.
 Gap=     0.567 Goal=   None    Shift=    0.000
 RMSDP=2.10D-03 MaxDP=1.36D-02 DE=-3.39D-03 OVMax= 1.58D-02

 Cycle   5  Pass 1  IDiag  3:
 E=-0.179762504400983     Delta-E=       -0.000591750535 Rises=F Damp=F
 DIIS: error= 3.71D-04 at cycle   5 NSaved=   5.
 NSaved= 5 IEnMin= 5 EnMin=-0.179762504400983     IErMin= 5 ErrMin= 3.71D-04
 ErrMax= 3.71D-04  0.00D+00 EMaxC= 1.00D-01 BMatC= 2.35D-06 BMatP= 8.89D-05
 IDIUse=3 WtCom= 9.96D-01 WtEn= 3.71D-03
 Coeff-Com:  0.676D-02-0.307D-01 0.415D+00-0.102D+01 0.163D+01
 Coeff-En:   0.000D+00 0.000D+00 0.000D+00 0.000D+00 0.100D+01
 Coeff:      0.673D-02-0.306D-01 0.414D+00-0.102D+01 0.163D+01
 Gap=     0.567 Goal=   None    Shift=    0.000
 RMSDP=2.81D-04 MaxDP=2.43D-03 DE=-5.92D-04 OVMax= 2.12D-03

 Cycle   6  Pass 1  IDiag  3:
 E=-0.179776843072588     Delta-E=       -0.000014338672 Rises=F Damp=F
 DIIS: error= 8.22D-05 at cycle   6 NSaved=   6.
 NSaved= 6 IEnMin= 6 EnMin=-0.179776843072588     IErMin= 6 ErrMin= 8.22D-05
 ErrMax= 8.22D-05  0.00D+00 EMaxC= 1.00D-01 BMatC= 2.30D-07 BMatP= 2.35D-06
 IDIUse=1 WtCom= 1.00D+00 WtEn= 0.00D+00
 Coeff-Com: -0.786D-04 0.318D-02-0.210D+00 0.554D+00-0.112D+01 0.177D+01
 Coeff:     -0.786D-04 0.318D-02-0.210D+00 0.554D+00-0.112D+01 0.177D+01
 Gap=     0.567 Goal=   None    Shift=    0.000
 RMSDP=1.09D-04 MaxDP=7.14D-04 DE=-1.43D-05 OVMax= 6.95D-04

 Cycle   7  Pass 1  IDiag  3:
 E=-0.179778493686712     Delta-E=       -0.000001650614 Rises=F Damp=F
 DIIS: error= 2.08D-05 at cycle   7 NSaved=   7.
 NSaved= 7 IEnMin= 7 EnMin=-0.179778493686712     IErMin= 7 ErrMin= 2.08D-05
 ErrMax= 2.08D-05  0.00D+00 EMaxC= 1.00D-01 BMatC= 1.43D-08 BMatP= 2.30D-07
 IDIUse=1 WtCom= 1.00D+00 WtEn= 0.00D+00
 Coeff-Com: -0.525D-03 0.985D-03 0.707D-01-0.190D+00 0.434D+00-0.954D+00
 Coeff-Com:  0.164D+01
 Coeff:     -0.525D-03 0.985D-03 0.707D-01-0.190D+00 0.434D+00-0.954D+00
 Coeff:      0.164D+01
 Gap=     0.567 Goal=   None    Shift=    0.000
 RMSDP=2.71D-05 MaxDP=1.69D-04 DE=-1.65D-06 OVMax= 1.57D-04

 Cycle   8  Pass 1  IDiag  3:
 E=-0.179778588723323     Delta-E=       -0.000000095037 Rises=F Damp=F
 DIIS: error= 4.62D-06 at cycle   8 NSaved=   8.
 NSaved= 8 IEnMin= 8 EnMin=-0.179778588723323     IErMin= 8 ErrMin= 4.62D-06
 ErrMax= 4.62D-06  0.00D+00 EMaxC= 1.00D-01 BMatC= 5.49D-10 BMatP= 1.43D-08
 IDIUse=1 WtCom= 1.00D+00 WtEn= 0.00D+00
 Coeff-Com:  0.133D-03-0.302D-03-0.114D-01 0.305D-01-0.847D-01 0.233D+00
 Coeff-Com: -0.517D+00 0.135D+01
 Coeff:      0.133D-03-0.302D-03-0.114D-01 0.305D-01-0.847D-01 0.233D+00
 Coeff:     -0.517D+00 0.135D+01
 Gap=     0.567 Goal=   None    Shift=    0.000
 RMSDP=3.66D-06 MaxDP=2.19D-05 DE=-9.50D-08 OVMax= 1.81D-05

 Cycle   9  Pass 1  IDiag  3:
 E=-0.179778591403320     Delta-E=       -0.000000002680 Rises=F Damp=F
 DIIS: error= 1.10D-06 at cycle   9 NSaved=   9.
 NSaved= 9 IEnMin= 9 EnMin=-0.179778591403320     IErMin= 9 ErrMin= 1.10D-06
 ErrMax= 1.10D-06  0.00D+00 EMaxC= 1.00D-01 BMatC= 4.03D-11 BMatP= 5.49D-10
 IDIUse=1 WtCom= 1.00D+00 WtEn= 0.00D+00
 Coeff-Com:  0.797D-05-0.892D-04 0.275D-02-0.686D-02 0.201D-01-0.550D-01
 Coeff-Com:  0.111D+00-0.488D+00 0.142D+01
 Coeff:      0.797D-05-0.892D-04 0.275D-02-0.686D-02 0.201D-01-0.550D-01
 Coeff:      0.111D+00-0.488D+00 0.142D+01
 Gap=     0.567 Goal=   None    Shift=    0.000
 RMSDP=1.11D-06 MaxDP=4.97D-06 DE=-2.68D-09 OVMax= 5.93D-06

 Cycle  10  Pass 1  IDiag  3:
 E=-0.179778591620433     Delta-E=       -0.000000000217 Rises=F Damp=F
 DIIS: error= 1.57D-07 at cycle  10 NSaved=  10.
 NSaved=10 IEnMin=10 EnMin=-0.179778591620433     IErMin=10 ErrMin= 1.57D-07
 ErrMax= 1.57D-07  0.00D+00 EMaxC= 1.00D-01 BMatC= 1.93D-12 BMatP= 4.03D-11
 IDIUse=1 WtCom= 1.00D+00 WtEn= 0.00D+00
 Coeff-Com: -0.405D-05 0.401D-04-0.960D-03 0.233D-02-0.759D-02 0.215D-01
 Coeff-Com: -0.412D-01 0.210D+00-0.773D+00 0.159D+01
 Coeff:     -0.405D-05 0.401D-04-0.960D-03 0.233D-02-0.759D-02 0.215D-01
 Coeff:     -0.412D-01 0.210D+00-0.773D+00 0.159D+01
 Gap=     0.567 Goal=   None    Shift=    0.000
 RMSDP=2.78D-07 MaxDP=1.09D-06 DE=-2.17D-10 OVMax= 2.25D-06

 Cycle  11  Pass 1  IDiag  3:
 E=-0.179778591632925     Delta-E=       -0.000000000012 Rises=F Damp=F
 DIIS: error= 7.12D-08 at cycle  11 NSaved=  11.
 NSaved=11 IEnMin=11 EnMin=-0.179778591632925     IErMin=11 ErrMin= 7.12D-08
 ErrMax= 7.12D-08  0.00D+00 EMaxC= 1.00D-01 BMatC= 2.35D-13 BMatP= 1.93D-12
 IDIUse=1 WtCom= 1.00D+00 WtEn= 0.00D+00
 Coeff-Com:  0.208D-05-0.213D-04 0.369D-03-0.841D-03 0.361D-02-0.112D-01
 Coeff-Com:  0.206D-01-0.128D+00 0.551D+00-0.142D+01 0.198D+01
 Coeff:      0.208D-05-0.213D-04 0.369D-03-0.841D-03 0.361D-02-0.112D-01
 Coeff:      0.206D-01-0.128D+00 0.551D+00-0.142D+01 0.198D+01
 Gap=     0.567 Goal=   None    Shift=    0.000
 RMSDP=1.16D-07 MaxDP=4.79D-07 DE=-1.25D-11 OVMax= 8.45D-07

 Cycle  12  Pass 1  IDiag  3:
 E=-0.179778591634758     Delta-E=       -0.000000000002 Rises=F Damp=F
 DIIS: error= 1.61D-08 at cycle  12 NSaved=  12.
 NSaved=12 IEnMin=12 EnMin=-0.179778591634758     IErMin=12 ErrMin= 1.61D-08
 ErrMax= 1.61D-08  0.00D+00 EMaxC= 1.00D-01 BMatC= 1.31D-14 BMatP= 2.35D-13
 IDIUse=1 WtCom= 1.00D+00 WtEn= 0.00D+00
 Coeff-Com: -0.815D-06 0.560D-05 0.222D-04-0.103D-03-0.351D-03 0.180D-02
 Coeff-Com: -0.297D-02 0.351D-01-0.186D+00 0.542D+00-0.956D+00 0.157D+01
 Coeff:     -0.815D-06 0.560D-05 0.222D-04-0.103D-03-0.351D-03 0.180D-02
 Coeff:     -0.297D-02 0.351D-01-0.186D+00 0.542D+00-0.956D+00 0.157D+01
 Gap=     0.567 Goal=   None    Shift=    0.000
 RMSDP=2.51D-08 MaxDP=1.06D-07 DE=-1.83D-12 OVMax= 1.92D-07

 Cycle  13  Pass 1  IDiag  3:
 E=-0.179778591635227     Delta-E=       -0.000000000000 Rises=F Damp=F
 DIIS: error= 2.72D-09 at cycle  13 NSaved=  13.
 NSaved=13 IEnMin=13 EnMin=-0.179778591635227     IErMin=13 ErrMin= 2.72D-09
 ErrMax= 2.72D-09  0.00D+00 EMaxC= 1.00D-01 BMatC= 4.52D-16 BMatP= 1.31D-14
 IDIUse=1 WtCom= 1.00D+00 WtEn= 0.00D+00
 Coeff-Com:  0.193D-06-0.165D-05 0.741D-05-0.640D-05 0.184D-03-0.702D-03
 Coeff-Com:  0.121D-02-0.109D-01 0.539D-01-0.151D+00 0.261D+00-0.509D+00
 Coeff-Com:  0.135D+01
 Coeff:      0.193D-06-0.165D-05 0.741D-05-0.640D-05 0.184D-03-0.702D-03
 Coeff:      0.121D-02-0.109D-01 0.539D-01-0.151D+00 0.261D+00-0.509D+00
 Coeff:      0.135D+01
 Gap=     0.567 Goal=   None    Shift=    0.000
 RMSDP=3.64D-09 MaxDP=1.54D-08 DE=-4.69D-13 OVMax= 2.66D-08

 Cycle  14  Pass 2  IDiag  1:
 SCF Done:  E(RPM6) = -0.179778591635     A.U. after   14 cycles
            NFock= 13  Conv=0.36D-08     -V/T= 0.9976
 KE=-7.577820921887D+01 PE=-1.270334715734D+02 EE= 9.126550605124D+01
 Leave Link  502 at Fri Sep  6 14:09:12 2024, MaxMem=  1073741824 cpu:               0.3 elap:               0.1
 (Enter /Users/asuyarger/Applications/G16/g16/l601.exe)
 Copying SCF densities to generalized density rwf, IOpCl= 0 IROHF=0.

 **********************************************************************

            Population analysis using the SCF density.

 **********************************************************************

 Orbital symmetries:
       Occupied  (A') (A") (A') (A') (A') (A") (A') (A") (A") (A')
                 (A") (A') (A')
       Virtual   (A') (A") (A') (A') (A") (A') (A')
 The electronic state is 1-A'.
 Alpha  occ. eigenvalues --   -1.53370  -1.53234  -1.01983  -0.83582  -0.68230
 Alpha  occ. eigenvalues --   -0.66640  -0.64391  -0.60065  -0.56986  -0.55647
 Alpha  occ. eigenvalues --   -0.52196  -0.50550  -0.47159
 Alpha virt. eigenvalues --    0.09569   0.10546   0.10964   0.17298   0.19546
 Alpha virt. eigenvalues --    0.19864   0.23332
     Molecular Orbital Coefficients:
                           1         2         3         4         5
                           O         O         O         O         O
     Eigenvalues --    -1.53370  -1.53234  -1.01983  -0.83582  -0.68230
   1 1   C  1S          0.16880  -0.00000   0.50938   0.51374  -0.05299
   2        1PX         0.00073  -0.00000  -0.11466   0.23900   0.34208
   3        1PY        -0.12820   0.00000   0.14186  -0.08583   0.35976
   4        1PZ        -0.00000  -0.19102  -0.00000  -0.00000   0.00000
   5 2   H  1S          0.04512  -0.00000   0.22968   0.31743   0.27692
   6 3   C  1S          0.02344  -0.00000   0.60823  -0.39482   0.02123
   7        1PX         0.01772  -0.00000   0.09519   0.20303   0.05989
   8        1PY        -0.02360   0.00000  -0.05060  -0.11835   0.23021
   9        1PZ        -0.00000  -0.01759   0.00000  -0.00000   0.00000
  10 4   H  1S          0.00783  -0.00646   0.26652  -0.22086   0.09335
  11 5   H  1S          0.00783   0.00646   0.26652  -0.22086   0.09335
  12 6   H  1S          0.01342  -0.00000   0.25430  -0.23635  -0.10116
  13 7   F  1S          0.68832   0.69327  -0.08389  -0.09286   0.04998
  14        1PX         0.00088   0.00065  -0.02973   0.10331   0.38467
  15        1PY         0.01859   0.02483   0.11668   0.14926   0.12431
  16        1PZ         0.03904   0.01781   0.10754   0.24814  -0.35883
  17 8   F  1S          0.68832  -0.69327  -0.08389  -0.09286   0.04998
  18        1PX         0.00088  -0.00065  -0.02973   0.10331   0.38467
  19        1PY         0.01859  -0.02483   0.11668   0.14926   0.12431
  20        1PZ        -0.03904   0.01781  -0.10754  -0.24814   0.35883
                           6         7         8         9        10
                           O         O         O         O         O
     Eigenvalues --    -0.66640  -0.64391  -0.60065  -0.56986  -0.55647
   1 1   C  1S          0.00000  -0.07091   0.00000   0.00000  -0.04327
   2        1PX        -0.00000   0.21696   0.00000  -0.00000  -0.05484
   3        1PY         0.00000  -0.27909   0.00000  -0.00000  -0.24510
   4        1PZ        -0.50131  -0.00000  -0.01498  -0.23493   0.00000
   5 2   H  1S          0.00000  -0.02566   0.00000  -0.00000  -0.18537
   6 3   C  1S         -0.00000   0.10475  -0.00000  -0.00000   0.01341
   7        1PX         0.00000  -0.26509   0.00000   0.00000  -0.39206
   8        1PY        -0.00000   0.16905   0.00000  -0.00000  -0.33036
   9        1PZ        -0.24274  -0.00000   0.09442  -0.18925   0.00000
  10 4   H  1S         -0.12321   0.11433   0.04931  -0.10323  -0.12094
  11 5   H  1S          0.12321   0.11433  -0.04931   0.10323  -0.12094
  12 6   H  1S         -0.00000   0.12768  -0.00000  -0.00000   0.35029
  13 7   F  1S         -0.09620  -0.02596  -0.00267  -0.03987  -0.02295
  14        1PX        -0.01949   0.40208   0.70022   0.04704   0.20949
  15        1PY         0.55227  -0.29389   0.05111  -0.30723   0.44109
  16        1PZ         0.12277   0.33141  -0.00864   0.58792  -0.06229
  17 8   F  1S          0.09620  -0.02596   0.00267   0.03987  -0.02295
  18        1PX         0.01949   0.40208  -0.70022  -0.04704   0.20949
  19        1PY        -0.55227  -0.29389  -0.05111   0.30723   0.44109
  20        1PZ         0.12277  -0.33141  -0.00864   0.58792   0.06229
                          11        12        13        14        15
                           O         O         O         V         V
     Eigenvalues --    -0.52196  -0.50550  -0.47159   0.09569   0.10546
   1 1   C  1S          0.00000  -0.08067   0.00762   0.53106   0.00000
   2        1PX        -0.00000   0.05633  -0.50780  -0.15364   0.00000
   3        1PY         0.00000  -0.32730  -0.00120  -0.47008  -0.00000
   4        1PZ        -0.15572  -0.00000   0.00000  -0.00000   0.78614
   5 2   H  1S          0.00000  -0.16664  -0.38280  -0.08668  -0.00000
   6 3   C  1S          0.00000  -0.02427   0.08082  -0.10029   0.00000
   7        1PX         0.00000   0.04319   0.53020  -0.18941   0.00000
   8        1PY        -0.00000   0.59628  -0.10743   0.12571  -0.00000
   9        1PZ         0.70408   0.00000  -0.00000  -0.00000   0.02258
  10 4   H  1S          0.41070   0.23971  -0.01162   0.04240  -0.11135
  11 5   H  1S         -0.41070   0.23971  -0.01162   0.04240   0.11135
  12 6   H  1S         -0.00000  -0.28193  -0.24142  -0.07731   0.00000
  13 7   F  1S         -0.01863  -0.02087   0.00187  -0.07194   0.08966
  14        1PX        -0.08414  -0.10359   0.34347   0.02234  -0.00217
  15        1PY         0.12001   0.35788   0.01554  -0.19526   0.28642
  16        1PZ         0.22250   0.11072   0.02612  -0.39177   0.29709
  17 8   F  1S          0.01863  -0.02087   0.00187  -0.07194  -0.08966
  18        1PX         0.08414  -0.10359   0.34347   0.02234   0.00217
  19        1PY        -0.12001   0.35788   0.01554  -0.19526  -0.28642
  20        1PZ         0.22250  -0.11072  -0.02612   0.39177   0.29709
                          16        17        18        19        20
                           V         V         V         V         V
     Eigenvalues --     0.10964   0.17298   0.19546   0.19864   0.23332
   1 1   C  1S         -0.19398  -0.33113  -0.00000  -0.04951  -0.00919
   2        1PX         0.50137  -0.44858   0.00000  -0.12630   0.09717
   3        1PY        -0.49036  -0.30960   0.00000  -0.14686  -0.05207
   4        1PZ        -0.00000   0.00000  -0.12053  -0.00000  -0.00000
   5 2   H  1S         -0.00080   0.72244   0.00000   0.16978  -0.01337
   6 3   C  1S          0.21631   0.00237   0.00000   0.05264   0.62871
   7        1PX         0.49450  -0.06673  -0.00000   0.33205  -0.20913
   8        1PY        -0.35402  -0.12099  -0.00000   0.51228   0.08286
   9        1PZ        -0.00000  -0.00000   0.63230   0.00000  -0.00000
  10 4   H  1S          0.07307   0.07627  -0.53909  -0.34135  -0.39578
  11 5   H  1S          0.07307   0.07627   0.53909  -0.34135  -0.39578
  12 6   H  1S          0.05263  -0.18863  -0.00000   0.56587  -0.47723
  13 7   F  1S         -0.03191  -0.01183  -0.01164  -0.00916  -0.00042
  14        1PX        -0.05949   0.04284  -0.00417   0.00923  -0.01590
  15        1PY        -0.02251   0.01972  -0.03075  -0.00454   0.00424
  16        1PZ        -0.12313  -0.01258  -0.03349  -0.03258  -0.00788
  17 8   F  1S         -0.03191  -0.01183   0.01164  -0.00916  -0.00042
  18        1PX        -0.05949   0.04284   0.00417   0.00923  -0.01590
  19        1PY        -0.02251   0.01972   0.03075  -0.00454   0.00424
  20        1PZ         0.12313   0.01258  -0.03349   0.03258   0.00788
     Density Matrix:
                           1         2         3         4         5
   1 1   C  1S          1.13634
   2        1PX         0.04990   0.99682
   3        1PY         0.08851   0.04251   0.83688
   4        1PZ        -0.00000   0.00000   0.00000   0.73492
   5 2   H  1S          0.58676   0.66779   0.41354   0.00000   0.88312
   6 3   C  1S          0.20877  -0.35447   0.20026   0.00000  -0.02153
   7        1PX         0.37786  -0.48941   0.34132  -0.00000  -0.05397
   8        1PY        -0.29874   0.39837  -0.14483  -0.00000   0.02431
   9        1PZ        -0.00000   0.00000  -0.00000   0.11691   0.00000
  10 4   H  1S         -0.00725  -0.00113   0.01727   0.04512   0.00259
  11 5   H  1S         -0.00725  -0.00113   0.01727  -0.04512   0.00259
  12 6   H  1S          0.02487  -0.01008  -0.02135   0.00000   0.05432
  13 7   F  1S          0.05528  -0.00295  -0.10899  -0.14378   0.00767
  14        1PX        -0.01782   0.11037  -0.00975   0.00241  -0.06168
  15        1PY         0.21135  -0.02170  -0.19433  -0.45774  -0.06073
  16        1PZ         0.35664  -0.01490  -0.50726  -0.47517  -0.03909
  17 8   F  1S          0.05528  -0.00295  -0.10899   0.14378   0.00767
  18        1PX        -0.01782   0.11037  -0.00975  -0.00241  -0.06168
  19        1PY         0.21135  -0.02170  -0.19433   0.45774  -0.06073
  20        1PZ        -0.35664   0.01490   0.50726  -0.47517   0.03909
                           6         7         8         9        10
   6 3   C  1S          1.09020
   7        1PX        -0.02360   1.12230
   8        1PY         0.02082   0.07606   1.14987
   9        1PZ         0.00000  -0.00000   0.00000   1.19937
  10 4   H  1S          0.51014   0.01512   0.47485   0.68676   0.82174
  11 5   H  1S          0.51014   0.01512   0.47485  -0.68676   0.03379
  12 6   H  1S          0.50312  -0.68191  -0.48962  -0.00000   0.03619
  13 7   F  1S          0.00093   0.00864   0.00208   0.01067   0.01340
  14        1PX         0.04904   0.06023  -0.04419   0.00537  -0.01100
  15        1PY        -0.03437  -0.04429   0.04187   0.02595   0.04773
  16        1PZ        -0.01192  -0.00997   0.04296   0.02893   0.05471
  17 8   F  1S          0.00093   0.00864   0.00208  -0.01067  -0.00144
  18        1PX         0.04904   0.06023  -0.04419  -0.00537  -0.00104
  19        1PY        -0.03437  -0.04429   0.04187  -0.02595  -0.01354
  20        1PZ         0.01192   0.00997  -0.04296   0.02893   0.00539
                          11        12        13        14        15
  11 5   H  1S          0.82174
  12 6   H  1S          0.03619   0.81543
  13 7   F  1S         -0.00144  -0.00225   1.97082
  14        1PX        -0.00104   0.00025   0.00088   1.98753
  15        1PY        -0.01354  -0.01120  -0.08122   0.00557   1.75592
  16        1PZ        -0.00539  -0.02300  -0.11918   0.00530  -0.33051
  17 8   F  1S          0.01340  -0.00225   0.00351   0.00029   0.02294
  18        1PX        -0.01100   0.00025   0.00029  -0.01238   0.00359
  19        1PY         0.04773  -0.01120   0.02294   0.00359   0.08784
  20        1PZ        -0.05471   0.02300   0.01107  -0.00328  -0.01397
                          16        17        18        19        20
  16        1PZ         1.48138
  17 8   F  1S         -0.01107   1.97082
  18        1PX         0.00328   0.00088   1.98753
  19        1PY         0.01397  -0.08122   0.00557   1.75592
  20        1PZ         0.16110   0.11918  -0.00530   0.33051   1.48138
    Full Mulliken population analysis:
                           1         2         3         4         5
   1 1   C  1S          1.13634
   2        1PX         0.00000   0.99682
   3        1PY         0.00000   0.00000   0.83688
   4        1PZ         0.00000   0.00000   0.00000   0.73492
   5 2   H  1S          0.00000   0.00000   0.00000   0.00000   0.88312
   6 3   C  1S          0.00000   0.00000   0.00000   0.00000   0.00000
   7        1PX         0.00000   0.00000   0.00000   0.00000   0.00000
   8        1PY         0.00000   0.00000   0.00000   0.00000   0.00000
   9        1PZ         0.00000   0.00000   0.00000   0.00000   0.00000
  10 4   H  1S          0.00000   0.00000   0.00000   0.00000   0.00000
  11 5   H  1S          0.00000   0.00000   0.00000   0.00000   0.00000
  12 6   H  1S          0.00000   0.00000   0.00000   0.00000   0.00000
  13 7   F  1S          0.00000   0.00000   0.00000   0.00000   0.00000
  14        1PX         0.00000   0.00000   0.00000   0.00000   0.00000
  15        1PY         0.00000   0.00000   0.00000   0.00000   0.00000
  16        1PZ         0.00000   0.00000   0.00000   0.00000   0.00000
  17 8   F  1S          0.00000   0.00000   0.00000   0.00000   0.00000
  18        1PX         0.00000   0.00000   0.00000   0.00000   0.00000
  19        1PY         0.00000   0.00000   0.00000   0.00000   0.00000
  20        1PZ         0.00000   0.00000   0.00000   0.00000   0.00000
                           6         7         8         9        10
   6 3   C  1S          1.09020
   7        1PX         0.00000   1.12230
   8        1PY         0.00000   0.00000   1.14987
   9        1PZ         0.00000   0.00000   0.00000   1.19937
  10 4   H  1S          0.00000   0.00000   0.00000   0.00000   0.82174
  11 5   H  1S          0.00000   0.00000   0.00000   0.00000   0.00000
  12 6   H  1S          0.00000   0.00000   0.00000   0.00000   0.00000
  13 7   F  1S          0.00000   0.00000   0.00000   0.00000   0.00000
  14        1PX         0.00000   0.00000   0.00000   0.00000   0.00000
  15        1PY         0.00000   0.00000   0.00000   0.00000   0.00000
  16        1PZ         0.00000   0.00000   0.00000   0.00000   0.00000
  17 8   F  1S          0.00000   0.00000   0.00000   0.00000   0.00000
  18        1PX         0.00000   0.00000   0.00000   0.00000   0.00000
  19        1PY         0.00000   0.00000   0.00000   0.00000   0.00000
  20        1PZ         0.00000   0.00000   0.00000   0.00000   0.00000
                          11        12        13        14        15
  11 5   H  1S          0.82174
  12 6   H  1S          0.00000   0.81543
  13 7   F  1S          0.00000   0.00000   1.97082
  14        1PX         0.00000   0.00000   0.00000   1.98753
  15        1PY         0.00000   0.00000   0.00000   0.00000   1.75592
  16        1PZ         0.00000   0.00000   0.00000   0.00000   0.00000
  17 8   F  1S          0.00000   0.00000   0.00000   0.00000   0.00000
  18        1PX         0.00000   0.00000   0.00000   0.00000   0.00000
  19        1PY         0.00000   0.00000   0.00000   0.00000   0.00000
  20        1PZ         0.00000   0.00000   0.00000   0.00000   0.00000
                          16        17        18        19        20
  16        1PZ         1.48138
  17 8   F  1S          0.00000   1.97082
  18        1PX         0.00000   0.00000   1.98753
  19        1PY         0.00000   0.00000   0.00000   1.75592
  20        1PZ         0.00000   0.00000   0.00000   0.00000   1.48138
     Gross orbital populations:
                           1
   1 1   C  1S          1.13634
   2        1PX         0.99682
   3        1PY         0.83688
   4        1PZ         0.73492
   5 2   H  1S          0.88312
   6 3   C  1S          1.09020
   7        1PX         1.12230
   8        1PY         1.14987
   9        1PZ         1.19937
  10 4   H  1S          0.82174
  11 5   H  1S          0.82174
  12 6   H  1S          0.81543
  13 7   F  1S          1.97082
  14        1PX         1.98753
  15        1PY         1.75592
  16        1PZ         1.48138
  17 8   F  1S          1.97082
  18        1PX         1.98753
  19        1PY         1.75592
  20        1PZ         1.48138
          Condensed to atoms (all electrons):
               1          2          3          4          5          6
     1  C    3.704958   0.000000   0.000000   0.000000   0.000000   0.000000
     2  H    0.000000   0.883122   0.000000   0.000000   0.000000   0.000000
     3  C    0.000000   0.000000   4.561735   0.000000   0.000000   0.000000
     4  H    0.000000   0.000000   0.000000   0.821738   0.000000   0.000000
     5  H    0.000000   0.000000   0.000000   0.000000   0.821738   0.000000
     6  H    0.000000   0.000000   0.000000   0.000000   0.000000   0.815427
     7  F    0.000000   0.000000   0.000000   0.000000   0.000000   0.000000
     8  F    0.000000   0.000000   0.000000   0.000000   0.000000   0.000000
               7          8
     1  C    0.000000   0.000000
     2  H    0.000000   0.000000
     3  C    0.000000   0.000000
     4  H    0.000000   0.000000
     5  H    0.000000   0.000000
     6  H    0.000000   0.000000
     7  F    7.195641   0.000000
     8  F    0.000000   7.195641
 Mulliken charges:
               1
     1  C    0.295042
     2  H    0.116878
     3  C   -0.561735
     4  H    0.178262
     5  H    0.178262
     6  H    0.184573
     7  F   -0.195641
     8  F   -0.195641
 Sum of Mulliken charges =   0.00000
 Mulliken charges with hydrogens summed into heavy atoms:
               1
     1  C    0.411920
     3  C   -0.020638
     7  F   -0.195641
     8  F   -0.195641
 Charge=              0.0000 electrons
 Dipole moment (field-independent basis, Debye):
    X=             -0.2623    Y=              2.0068    Z=             -0.0000  Tot=              2.0239
 N-N= 1.113663961494D+02 E-N=-1.270334715965D+02  KE=-7.577820921887D+01
 Symmetry A'   KE=-4.250048714519D+01
 Symmetry A"   KE=-3.327772207368D+01
 StAtR1:  DoIntr=F IAtCor=3 NETot=      26 Failed=F Sum=  8.00D+00 SumC=  0.00D+00
 There are a total of      182092 grid points.
 ElSum from          density=       32.6202641049
 ElSum from atomic densities=       33.9999984016

 Hirshfeld populations at iteration   1 (CX, CA, CB, DipXYZ):
               1          2          3          4          5          6
     1  C    0.000000   2.281077   2.281077   0.498735  -1.622899  -0.000000
     2  H    0.000002   0.595350   0.595350  -0.087975  -0.239252  -0.000000
     3  C    0.000000   3.206687   3.206687  -0.053214  -0.238875   0.000000
     4  H    0.000002   0.699054   0.699054   0.083358  -0.115512   0.011942
     5  H    0.000002   0.699054   0.699054   0.083358  -0.115512  -0.011942
     6  H    0.000002   0.682079   0.682079   0.152905  -0.129848   0.000000
     7  F    0.000001   4.073415   4.073415   0.031901  -0.640617  -0.529485
     8  F    0.000001   4.073415   4.073415   0.031901  -0.640617   0.529485
       Tot   0.000009  16.310132  16.310132   0.740969  -3.743130   0.000000

 Dip from Atomic Chgs              4.614115  -5.116518   0.000000
         Total Dipole              5.355084  -8.859649   0.000000

 Hirshfeld charges, spin densities, dipoles, and CM5 charges using IRadAn=      5:
              Q-H        S-H        Dx         Dy         Dz        Q-CM5   
     1  C   -0.562153   0.000000   0.498735  -1.622899  -0.000000  -0.586208
     2  H   -0.190701   0.000000  -0.087975  -0.239252  -0.000000  -0.127128
     3  C   -2.413374   0.000000  -0.053214  -0.238875   0.000000  -2.564467
     4  H   -0.398108   0.000000   0.083358  -0.115512   0.011942  -0.343197
     5  H   -0.398108   0.000000   0.083358  -0.115512  -0.011942  -0.343197
     6  H   -0.364158   0.000000   0.152905  -0.129848   0.000000  -0.308427
     7  F   -1.146831   0.000000   0.031901  -0.640617  -0.529485  -1.173820
     8  F   -1.146831   0.000000   0.031901  -0.640617   0.529485  -1.173820
       Tot  -6.620264   0.000000   0.740969  -3.743130   0.000000  -6.620264
 Hirshfeld charges with hydrogens summed into heavy atoms:
              Q-H       Q-CM5   
     1  C   -0.752854  -0.713336
     3  C   -3.573749  -3.559289
     7  F   -1.146831  -1.173820
     8  F   -1.146831  -1.173820
 
 EQQ= 0.000000000000E+00 EQD= 0.000000000000E+00 EDD= 0.220841775527    
 EQQ+QD+DD= 0.220841775527    
 
 Orbital energies and kinetic energies (alpha):
                                 1                 2
   1         O                -1.533700         -5.061418
   2         O                -1.532342         -5.090550
   3         O                -1.019827         -2.053304
   4         O                -0.835823         -2.126574
   5         O                -0.682300         -2.801400
   6         O                -0.666397         -3.035668
   7         O                -0.643911         -3.074848
   8         O                -0.600652         -3.597609
   9         O                -0.569856         -3.383310
  10         O                -0.556474         -2.389155
  11         O                -0.521957         -1.531724
  12         O                -0.505501         -1.956694
  13         O                -0.471594         -1.786851
  14         V                 0.095689         -2.178333
  15         V                 0.105460         -2.015840
  16         V                 0.109644         -1.390382
  17         V                 0.172980         -0.706302
  18         V                 0.195464         -0.673558
  19         V                 0.198640         -0.668320
  20         V                 0.233319         -0.779153
 Total kinetic energy from orbitals=-7.577820921887D+01
 Leave Link  601 at Fri Sep  6 14:09:12 2024, MaxMem=  1073741824 cpu:               0.5 elap:               0.1
 (Enter /Users/asuyarger/Applications/G16/g16/l701.exe)
 ... and contract with generalized density number  0.
 Compute integral first derivatives.
 Leave Link  701 at Fri Sep  6 14:09:12 2024, MaxMem=  1073741824 cpu:               0.2 elap:               0.0
 (Enter /Users/asuyarger/Applications/G16/g16/l702.exe)
 L702 exits ... SP integral derivatives will be done elsewhere.
 Leave Link  702 at Fri Sep  6 14:09:12 2024, MaxMem=  1073741824 cpu:               0.1 elap:               0.0
 (Enter /Users/asuyarger/Applications/G16/g16/l703.exe)
 Integral derivatives from FoFJK, PRISM(SPDF).
 Compute integral first derivatives, UseDBF=F ICtDFT=           0.
 Calling FoFJK, ICntrl=      2127 FMM=F ISym2X=1 I1Cent= 0 IOpClX= 0 NMat=1 NMatS=1 NMatT=0.
 FoFJK:  IHMeth=40 ICntrl=    2127 DoSepK=F KAlg= 0 I1Cent=           0 FoldK=F
 IRaf=         0 NMat=       1 IRICut=       1 DoRegI=T DoRafI=F ISym2E= 1 IDoP0=3 IntGTp=3.
 FoFCou: FMM=F IPFlag=           0 FMFlag=      100000 FMFlg1=         800
         NFxFlg=           0 DoJE=F BraDBF=F KetDBF=F FulRan=T
         wScrn=  0.000000 ICntrl=      2127 IOpCl=  0 I1Cent=           0 NGrid=           0
         NMat0=    1 NMatS0=      1 NMatT0=    0 NMatD0=    1 NMtDS0=    0 NMtDT0=    0
 Petite list used in FoFCou.
 Leave Link  703 at Fri Sep  6 14:09:12 2024, MaxMem=  1073741824 cpu:               0.2 elap:               0.0
 (Enter /Users/asuyarger/Applications/G16/g16/l716.exe)
 Dipole        =-1.03182638D-01 7.89552761D-01-5.32907052D-15
 ***** Axes restored to original set *****
 -------------------------------------------------------------------
 Center     Atomic                   Forces (Hartrees/Bohr)
 Number     Number              X              Y              Z
 -------------------------------------------------------------------
      1        6           0.012609490    0.017831306    0.020217878
      2        1           0.004034507    0.005702634   -0.024708120
      3        6          -0.010734316   -0.015179651   -0.017950425
      4        1           0.015127631    0.001834193    0.003719224
      5        1          -0.003311254    0.014874585    0.003718122
      6        1          -0.002643820   -0.003736851    0.017328280
      7        9          -0.001188621   -0.015155737   -0.001162099
      8        9          -0.013893617   -0.006170479   -0.001162859
 -------------------------------------------------------------------
 Cartesian Forces:  Max     0.024708120 RMS     0.012060779
 Leave Link  716 at Fri Sep  6 14:09:12 2024, MaxMem=  1073741824 cpu:               0.1 elap:               0.0
 (Enter /Users/asuyarger/Applications/G16/g16/l103.exe)

 GradGradGradGradGradGradGradGradGradGradGradGradGradGradGradGradGradGrad
 Berny optimization.
 FormGI is forming the generalized inverse of G from B-inverse, IUseBI=4.
 Internal  Forces:  Max     0.024207177 RMS     0.009430112
 Search for a local minimum.
 Step number   1 out of a maximum of   38
 All quantities printed in internal units (Hartrees-Bohrs-Radians)
 RMS Force = .94301D-02 SwitMx=.10000D-02 MixMth= 1
 Mixed Optimization -- RFO/linear search
 Second derivative matrix not updated -- first step.
 ITU=  0
     Eigenvalues ---    0.00237   0.05720   0.05720   0.06082   0.07530
     Eigenvalues ---    0.16000   0.16000   0.16000   0.16000   0.23463
     Eigenvalues ---    0.24168   0.28519   0.37230   0.37230   0.37230
     Eigenvalues ---    0.37230   0.55021   0.55021
 RFO step:  Lambda=-1.10650925D-02 EMin= 2.36824138D-03
 Linear search not attempted -- first point.
 Iteration  1 RMS(Cart)=  0.05688152 RMS(Int)=  0.00219231
 Iteration  2 RMS(Cart)=  0.00175921 RMS(Int)=  0.00125854
 Iteration  3 RMS(Cart)=  0.00000088 RMS(Int)=  0.00125854
 ITry= 1 IFail=0 DXMaxC= 1.67D-01 DCOld= 1.00D+10 DXMaxT= 3.00D-01 DXLimC= 3.00D+00 Rises=F
 ClnCor:  largest displacement from symmetrization is 6.37D-09 for atom     8.
 Variable       Old X    -DE/DX   Delta X   Delta X   Delta X     New X
                                 (Linear)    (Quad)   (Total)
    R1        2.02201   0.02421   0.00000   0.06314   0.06314   2.08515
    R2        2.91018   0.00400   0.00000   0.01351   0.01351   2.92369
    R3        2.55113   0.00119   0.00000   0.00212   0.00212   2.55325
    R4        2.55113   0.00119   0.00000   0.00212   0.00212   2.55325
    R5        2.02201   0.01513   0.00000   0.03946   0.03946   2.06147
    R6        2.02201   0.01513   0.00000   0.03946   0.03946   2.06147
    R7        2.02201   0.01679   0.00000   0.04380   0.04380   2.06581
    A1        1.91063   0.01181   0.00000   0.09881   0.09525   2.00588
    A2        1.91063  -0.00550   0.00000  -0.00238  -0.00552   1.90511
    A3        1.91063  -0.00550   0.00000  -0.00238  -0.00552   1.90511
    A4        1.91063   0.00937   0.00000   0.01804   0.01617   1.92681
    A5        1.91063   0.00937   0.00000   0.01804   0.01617   1.92681
    A6        1.91063  -0.01955   0.00000  -0.13013  -0.13007   1.78057
    A7        1.91063   0.00369   0.00000   0.02101   0.02065   1.93128
    A8        1.91063   0.00369   0.00000   0.02101   0.02065   1.93128
    A9        1.91063   0.00732   0.00000   0.04392   0.04336   1.95400
   A10        1.91063  -0.00401   0.00000  -0.02565  -0.02579   1.88484
   A11        1.91063  -0.00535   0.00000  -0.03015  -0.03068   1.87995
   A12        1.91063  -0.00535   0.00000  -0.03015  -0.03068   1.87995
    D1       -1.04720   0.00019   0.00000   0.00284   0.00294  -1.04426
    D2        1.04720  -0.00019   0.00000  -0.00284  -0.00294   1.04426
    D3        3.14159  -0.00000   0.00000  -0.00000   0.00000   3.14159
    D4       -3.14159  -0.00604   0.00000  -0.06580  -0.06650   3.07510
    D5       -1.04720  -0.00643   0.00000  -0.07148  -0.07237  -1.11957
    D6        1.04720  -0.00623   0.00000  -0.06864  -0.06944   0.97776
    D7        1.04720   0.00643   0.00000   0.07148   0.07237   1.11957
    D8        3.14159   0.00604   0.00000   0.06580   0.06650  -3.07510
    D9       -1.04720   0.00623   0.00000   0.06864   0.06944  -0.97776
         Item               Value     Threshold  Converged?
 Maximum Force            0.024207     0.000015     NO 
 RMS     Force            0.009430     0.000010     NO 
 Maximum Displacement     0.166912     0.000060     NO 
 RMS     Displacement     0.056786     0.000040     NO 
 Predicted change in Energy=-5.975519D-03
 Lowest energy point so far.  Saving SCF results.
 GradGradGradGradGradGradGradGradGradGradGradGradGradGradGradGradGradGrad

 Leave Link  103 at Fri Sep  6 14:09:12 2024, MaxMem=  1073741824 cpu:               0.1 elap:               0.0
 (Enter /Users/asuyarger/Applications/G16/g16/l202.exe)
                          Input orientation:                          
 ---------------------------------------------------------------------
 Center     Atomic      Atomic             Coordinates (Angstroms)
 Number     Number       Type             X           Y           Z
 ---------------------------------------------------------------------
      1          6           0        0.171023   -0.328129   -0.015488
      2          1           0        0.500482    0.137641   -0.959965
      3          6           0        0.669710    0.377115    1.268107
      4          1           0        1.760015    0.390413    1.301003
      5          1           0        0.318969    1.409552    1.300917
      6          1           0        0.315726   -0.123337    2.173248
      7          9           0       -1.177241   -0.415822   -0.011105
      8          9           0        0.537566   -1.628571   -0.011002
 ---------------------------------------------------------------------
                    Distance matrix (angstroms):
                    1          2          3          4          5
     1  C    0.000000
     2  H    1.103414   0.000000
     3  C    1.547151   2.247286   0.000000
     4  H    2.185028   2.600441   1.090881   0.000000
     5  H    2.185028   2.600441   1.090881   1.765009   0.000000
     6  H    2.203054   3.149488   1.093178   1.763724   1.763724
     7  F    1.351120   2.005346   2.382511   3.316491   2.700377
     8  F    1.351120   2.005346   2.382511   2.700377   3.316491
                    6          7          8
     6  H    0.000000
     7  F    2.661934   0.000000
     8  F    2.661934   2.100315   0.000000
 Stoichiometry    C2H4F2
 Framework group  CS[SG(C2H2),X(H2F2)]
 Deg. of freedom    11
 Full point group                 CS      NOp   2
 RotChk:  IX=0 Diff= 7.38D-03
 Largest Abelian subgroup         CS      NOp   2
 Largest concise Abelian subgroup CS      NOp   2
                         Standard orientation:                         
 ---------------------------------------------------------------------
 Center     Atomic      Atomic             Coordinates (Angstroms)
 Number     Number       Type             X           Y           Z
 ---------------------------------------------------------------------
      1          6           0        0.341929    0.186779    0.000000
      2          1           0        1.283417    0.762212    0.000000
      3          6           0       -0.946155    1.043819   -0.000000
      4          1           0       -0.982348    1.684051    0.882504
      5          1           0       -0.982348    1.684051   -0.882504
      6          1           0       -1.848086    0.426115   -0.000000
      7          9           0        0.341929   -0.663334   -1.050158
      8          9           0        0.341929   -0.663334    1.050158
 ---------------------------------------------------------------------
 Rotational constants (GHZ):          10.1349479           8.4708818           5.2239074
 Leave Link  202 at Fri Sep  6 14:09:12 2024, MaxMem=  1073741824 cpu:               0.0 elap:               0.0
 (Enter /Users/asuyarger/Applications/G16/g16/l301.exe)
 Standard basis: VSTO-6G (5D, 7F)
 Ernie: Thresh=  0.10000D-02 Tol=  0.10000D-05 Strict=F.
  NNHCO=     0 NNPyr=     0 NCTC=     0               EPep=         0.000000000
    EC=        64.374665047  ECS=         1.307105299   EG=         0.126690776
   EHC=         0.000380030  EAt=       -44.529382042  AtH=         0.936986650
 EPDDG=         0.000000000  ECC=        65.808841153 EAtT=        45.466368692
 There are    13 symmetry adapted cartesian basis functions of A'  symmetry.
 There are     7 symmetry adapted cartesian basis functions of A"  symmetry.
 There are    13 symmetry adapted basis functions of A'  symmetry.
 There are     7 symmetry adapted basis functions of A"  symmetry.
    20 basis functions,   120 primitive gaussians,    20 cartesian basis functions
    13 alpha electrons       13 beta electrons
       nuclear repulsion energy       111.2752098444 Hartrees.
 IExCor=    0 DFT=F Ex=HF Corr=None ExCW=0 ScaHFX=  1.000000
 ScaDFX=  1.000000  1.000000  1.000000  1.000000 ScalE2=  1.000000  1.000000
 IRadAn=      5 IRanWt=     -1 IRanGd=            0 ICorTp=0 IEmpDi=  4
 Integral buffers will be    131072 words long.
 Regular integral format.
 Two-electron integral symmetry is turned off.
 Leave Link  301 at Fri Sep  6 14:09:12 2024, MaxMem=  1073741824 cpu:               0.1 elap:               0.0
 (Enter /Users/asuyarger/Applications/G16/g16/l302.exe)
 Do NDO integrals.
 NPDir=0 NMtPBC=     1 NCelOv=     1 NCel=       1 NClECP=     1 NCelD=      1
         NCelK=      1 NCelE2=     1 NClLst=     1 CellRange=     0.0.
 One-electron integrals computed using PRISM.
 NBasis=    20 RedAO= T EigKep=  1.00D+00  NBF=    13     7
 NBsUse=    20 1.00D-06 EigRej= -1.00D+00 NBFU=    13     7
 Leave Link  302 at Fri Sep  6 14:09:12 2024, MaxMem=  1073741824 cpu:               0.3 elap:               0.1
 (Enter /Users/asuyarger/Applications/G16/g16/l303.exe)
 DipDrv:  MaxL=1.
 Leave Link  303 at Fri Sep  6 14:09:12 2024, MaxMem=  1073741824 cpu:               0.1 elap:               0.0
 (Enter /Users/asuyarger/Applications/G16/g16/l401.exe)
 Initial guess from the checkpoint file:  "r152a_PM6_Opt_Freq_Full.chk"
 B after Tr=    -0.000000    0.000000    0.000000
         Rot=    0.999997    0.000000   -0.000000   -0.002294 Ang=  -0.26 deg.
 Guess basis will be translated and rotated to current coordinates.
 JPrj=0 DoOrth=T DoCkMO=T.
 Initial guess orbital symmetries:
       Occupied  (A') (A") (A') (A') (A') (A") (A') (A") (A") (A')
                 (A") (A') (A')
       Virtual   (A') (A") (A') (A') (A") (A') (A')
 The electronic state of the initial guess is 1-A'.
 Leave Link  401 at Fri Sep  6 14:09:12 2024, MaxMem=  1073741824 cpu:               0.3 elap:               0.0
 (Enter /Users/asuyarger/Applications/G16/g16/l502.exe)
 Keep J ints in memory in canonical form, NReq=860217.
 FoFCou: FMM=F IPFlag=           0 FMFlag=           0 FMFlg1=           0
         NFxFlg=           0 DoJE=F BraDBF=F KetDBF=F FulRan=T
         wScrn=  0.000000 ICntrl=       600 IOpCl=  2 I1Cent=           0 NGrid=           0
         NMat0=    1 NMatS0=     44 NMatT0=    0 NMatD0=    1 NMtDS0=    0 NMtDT0=    0
 Symmetry not used in FoFCou.
 Two-electron integral symmetry not used.
 Closed shell SCF:
 Using DIIS extrapolation, IDIIS=  1040.
 Overlap will be assumed to be unity.
 NGot=  1073741824 LenX=  1073680380 LenY=  1073679498
 Requested convergence on RMS density matrix=1.00D-08 within 128 cycles.
 Requested convergence on MAX density matrix=1.00D-06.
 Requested convergence on             energy=1.00D-06.
 No special actions if energy rises.

 Cycle   1  Pass 1  IDiag  1:
 E=-0.181110080944762    
 DIIS: error= 4.83D-03 at cycle   1 NSaved=   1.
 NSaved= 1 IEnMin= 1 EnMin=-0.181110080944762     IErMin= 1 ErrMin= 4.83D-03
 ErrMax= 4.83D-03  0.00D+00 EMaxC= 1.00D-01 BMatC= 8.99D-04 BMatP= 8.99D-04
 IDIUse=3 WtCom= 9.52D-01 WtEn= 4.83D-02
 Coeff-Com:  0.100D+01
 Coeff-En:   0.100D+01
 Coeff:      0.100D+01
 GapD=    2.000 DampG=2.000 DampE=1.000 DampFc=2.0000 IDamp=-1.
 RMSDP=2.60D-03 MaxDP=1.31D-02              OVMax= 0.00D+00

 Cycle   2  Pass 1  IDiag  3:
 E=-0.184272972092586     Delta-E=       -0.003162891148 Rises=F Damp=F
 DIIS: error= 2.82D-03 at cycle   2 NSaved=   2.
 NSaved= 2 IEnMin= 2 EnMin=-0.184272972092586     IErMin= 2 ErrMin= 2.82D-03
 ErrMax= 2.82D-03  0.00D+00 EMaxC= 1.00D-01 BMatC= 2.07D-04 BMatP= 8.99D-04
 IDIUse=3 WtCom= 9.72D-01 WtEn= 2.82D-02
 Coeff-Com: -0.604D+00 0.160D+01
 Coeff-En:   0.000D+00 0.100D+01
 Coeff:     -0.587D+00 0.159D+01
 Fock symm off for IB=2 I1=    1 I=   14 J=   10 Cut=1.00D-07 Err=1.14D-02
 Fock matrix is not symmetric: symmetry in diagonalization turned off.
 Gap=     0.573 Goal=   None    Shift=    0.000
 RMSDP=2.23D-03 MaxDP=1.29D-02 DE=-3.16D-03 OVMax= 1.74D-02

 Cycle   3  Pass 1  IDiag  3:
 E=-0.185478258489738     Delta-E=       -0.001205286397 Rises=F Damp=F
 DIIS: error= 1.12D-03 at cycle   3 NSaved=   3.
 NSaved= 3 IEnMin= 3 EnMin=-0.185478258489738     IErMin= 3 ErrMin= 1.12D-03
 ErrMax= 1.12D-03  0.00D+00 EMaxC= 1.00D-01 BMatC= 2.98D-05 BMatP= 2.07D-04
 IDIUse=3 WtCom= 9.89D-01 WtEn= 1.12D-02
 Coeff-Com:  0.436D+00-0.146D+01 0.203D+01
 Coeff-En:   0.000D+00 0.000D+00 0.100D+01
 Coeff:      0.431D+00-0.145D+01 0.202D+01
 Gap=     0.574 Goal=   None    Shift=    0.000
 RMSDP=1.31D-03 MaxDP=7.87D-03 DE=-1.21D-03 OVMax= 1.09D-02

 Cycle   4  Pass 1  IDiag  3:
 E=-0.185699259969681     Delta-E=       -0.000221001480 Rises=F Damp=F
 DIIS: error= 1.29D-04 at cycle   4 NSaved=   4.
 NSaved= 4 IEnMin= 4 EnMin=-0.185699259969681     IErMin= 4 ErrMin= 1.29D-04
 ErrMax= 1.29D-04  0.00D+00 EMaxC= 1.00D-01 BMatC= 8.10D-07 BMatP= 2.98D-05
 IDIUse=3 WtCom= 9.99D-01 WtEn= 1.29D-03
 Coeff-Com: -0.185D+00 0.646D+00-0.102D+01 0.156D+01
 Coeff-En:   0.000D+00 0.000D+00 0.000D+00 0.100D+01
 Coeff:     -0.185D+00 0.645D+00-0.102D+01 0.156D+01
 Gap=     0.574 Goal=   None    Shift=    0.000
 RMSDP=1.90D-04 MaxDP=1.09D-03 DE=-2.21D-04 OVMax= 1.41D-03

 Cycle   5  Pass 1  IDiag  3:
 E=-0.185704352424679     Delta-E=       -0.000005092455 Rises=F Damp=F
 DIIS: error= 2.72D-05 at cycle   5 NSaved=   5.
 NSaved= 5 IEnMin= 5 EnMin=-0.185704352424679     IErMin= 5 ErrMin= 2.72D-05
 ErrMax= 2.72D-05  0.00D+00 EMaxC= 1.00D-01 BMatC= 3.46D-08 BMatP= 8.10D-07
 IDIUse=1 WtCom= 1.00D+00 WtEn= 0.00D+00
 Coeff-Com:  0.118D+00-0.412D+00 0.656D+00-0.109D+01 0.172D+01
 Coeff:      0.118D+00-0.412D+00 0.656D+00-0.109D+01 0.172D+01
 Gap=     0.574 Goal=   None    Shift=    0.000
 RMSDP=3.52D-05 MaxDP=1.59D-04 DE=-5.09D-06 OVMax= 2.73D-04

 Cycle   6  Pass 1  IDiag  3:
 E=-0.185704559225783     Delta-E=       -0.000000206801 Rises=F Damp=F
 DIIS: error= 6.87D-06 at cycle   6 NSaved=   6.
 NSaved= 6 IEnMin= 6 EnMin=-0.185704559225783     IErMin= 6 ErrMin= 6.87D-06
 ErrMax= 6.87D-06  0.00D+00 EMaxC= 1.00D-01 BMatC= 1.57D-09 BMatP= 3.46D-08
 IDIUse=1 WtCom= 1.00D+00 WtEn= 0.00D+00
 Coeff-Com: -0.432D-01 0.152D+00-0.242D+00 0.406D+00-0.762D+00 0.149D+01
 Coeff:     -0.432D-01 0.152D+00-0.242D+00 0.406D+00-0.762D+00 0.149D+01
 Gap=     0.574 Goal=   None    Shift=    0.000
 RMSDP=7.27D-06 MaxDP=4.41D-05 DE=-2.07D-07 OVMax= 4.56D-05

 Cycle   7  Pass 1  IDiag  3:
 E=-0.185704568944388     Delta-E=       -0.000000009719 Rises=F Damp=F
 DIIS: error= 1.84D-06 at cycle   7 NSaved=   7.
 NSaved= 7 IEnMin= 7 EnMin=-0.185704568944388     IErMin= 7 ErrMin= 1.84D-06
 ErrMax= 1.84D-06  0.00D+00 EMaxC= 1.00D-01 BMatC= 1.33D-10 BMatP= 1.57D-09
 IDIUse=1 WtCom= 1.00D+00 WtEn= 0.00D+00
 Coeff-Com:  0.673D-02-0.237D-01 0.381D-01-0.640D-01 0.145D+00-0.567D+00
 Coeff-Com:  0.146D+01
 Coeff:      0.673D-02-0.237D-01 0.381D-01-0.640D-01 0.145D+00-0.567D+00
 Coeff:      0.146D+01
 Gap=     0.574 Goal=   None    Shift=    0.000
 RMSDP=2.30D-06 MaxDP=1.37D-05 DE=-9.72D-09 OVMax= 1.25D-05

 Cycle   8  Pass 1  IDiag  3:
 E=-0.185704569843054     Delta-E=       -0.000000000899 Rises=F Damp=F
 DIIS: error= 6.53D-07 at cycle   8 NSaved=   8.
 NSaved= 8 IEnMin= 8 EnMin=-0.185704569843054     IErMin= 8 ErrMin= 6.53D-07
 ErrMax= 6.53D-07  0.00D+00 EMaxC= 1.00D-01 BMatC= 1.28D-11 BMatP= 1.33D-10
 IDIUse=1 WtCom= 1.00D+00 WtEn= 0.00D+00
 Coeff-Com: -0.694D-03 0.254D-02-0.422D-02 0.717D-02-0.282D-01 0.227D+00
 Coeff-Com: -0.898D+00 0.169D+01
 Coeff:     -0.694D-03 0.254D-02-0.422D-02 0.717D-02-0.282D-01 0.227D+00
 Coeff:     -0.898D+00 0.169D+01
 Gap=     0.574 Goal=   None    Shift=    0.000
 RMSDP=7.88D-07 MaxDP=5.32D-06 DE=-8.99D-10 OVMax= 5.76D-06

 Cycle   9  Pass 1  IDiag  3:
 E=-0.185704569934060     Delta-E=       -0.000000000091 Rises=F Damp=F
 DIIS: error= 1.55D-07 at cycle   9 NSaved=   9.
 NSaved= 9 IEnMin= 9 EnMin=-0.185704569934060     IErMin= 9 ErrMin= 1.55D-07
 ErrMax= 1.55D-07  0.00D+00 EMaxC= 1.00D-01 BMatC= 8.05D-13 BMatP= 1.28D-11
 IDIUse=1 WtCom= 1.00D+00 WtEn= 0.00D+00
 Coeff-Com:  0.132D-03-0.523D-03 0.913D-03-0.153D-02 0.962D-02-0.101D+00
 Coeff-Com:  0.444D+00-0.103D+01 0.168D+01
 Coeff:      0.132D-03-0.523D-03 0.913D-03-0.153D-02 0.962D-02-0.101D+00
 Coeff:      0.444D+00-0.103D+01 0.168D+01
 Gap=     0.574 Goal=   None    Shift=    0.000
 RMSDP=1.97D-07 MaxDP=1.38D-06 DE=-9.10D-11 OVMax= 1.37D-06

 Cycle  10  Pass 1  IDiag  3:
 E=-0.185704569939361     Delta-E=       -0.000000000005 Rises=F Damp=F
 DIIS: error= 2.73D-08 at cycle  10 NSaved=  10.
 NSaved=10 IEnMin=10 EnMin=-0.185704569939361     IErMin=10 ErrMin= 2.73D-08
 ErrMax= 2.73D-08  0.00D+00 EMaxC= 1.00D-01 BMatC= 3.06D-14 BMatP= 8.05D-13
 IDIUse=1 WtCom= 1.00D+00 WtEn= 0.00D+00
 Coeff-Com: -0.445D-04 0.188D-03-0.339D-03 0.553D-03-0.439D-02 0.501D-01
 Coeff-Com: -0.223D+00 0.534D+00-0.977D+00 0.162D+01
 Coeff:     -0.445D-04 0.188D-03-0.339D-03 0.553D-03-0.439D-02 0.501D-01
 Coeff:     -0.223D+00 0.534D+00-0.977D+00 0.162D+01
 Gap=     0.574 Goal=   None    Shift=    0.000
 RMSDP=3.34D-08 MaxDP=2.44D-07 DE=-5.30D-12 OVMax= 1.85D-07

 Cycle  11  Pass 1  IDiag  3:
 E=-0.185704569939503     Delta-E=       -0.000000000000 Rises=F Damp=F
 DIIS: error= 6.05D-09 at cycle  11 NSaved=  11.
 NSaved=11 IEnMin=11 EnMin=-0.185704569939503     IErMin=11 ErrMin= 6.05D-09
 ErrMax= 6.05D-09  0.00D+00 EMaxC= 1.00D-01 BMatC= 1.38D-15 BMatP= 3.06D-14
 IDIUse=1 WtCom= 1.00D+00 WtEn= 0.00D+00
 Coeff-Com:  0.154D-05-0.158D-04 0.380D-04-0.551D-04 0.116D-02-0.157D-01
 Coeff-Com:  0.717D-01-0.175D+00 0.337D+00-0.704D+00 0.149D+01
 Coeff:      0.154D-05-0.158D-04 0.380D-04-0.551D-04 0.116D-02-0.157D-01
 Coeff:      0.717D-01-0.175D+00 0.337D+00-0.704D+00 0.149D+01
 Gap=     0.574 Goal=   None    Shift=    0.000
 RMSDP=6.74D-09 MaxDP=2.77D-08 DE=-1.42D-13 OVMax= 4.37D-08

 Cycle  12  Pass 2  IDiag  1:
 SCF Done:  E(RPM6) = -0.185704569940     A.U. after   12 cycles
            NFock= 11  Conv=0.67D-08     -V/T= 0.9975
 KE=-7.579014662998D+01 PE=-1.269995386931D+02 EE= 9.132877090868D+01
 Leave Link  502 at Fri Sep  6 14:09:13 2024, MaxMem=  1073741824 cpu:               0.2 elap:               0.0
 (Enter /Users/asuyarger/Applications/G16/g16/l701.exe)
 ... and contract with generalized density number  0.
 Compute integral first derivatives.
 Leave Link  701 at Fri Sep  6 14:09:13 2024, MaxMem=  1073741824 cpu:               0.2 elap:               0.0
 (Enter /Users/asuyarger/Applications/G16/g16/l702.exe)
 L702 exits ... SP integral derivatives will be done elsewhere.
 Leave Link  702 at Fri Sep  6 14:09:13 2024, MaxMem=  1073741824 cpu:               0.1 elap:               0.0
 (Enter /Users/asuyarger/Applications/G16/g16/l703.exe)
 Integral derivatives from FoFJK, PRISM(SPDF).
 Compute integral first derivatives, UseDBF=F ICtDFT=           0.
 Calling FoFJK, ICntrl=      2127 FMM=F ISym2X=1 I1Cent= 0 IOpClX= 0 NMat=1 NMatS=1 NMatT=0.
 FoFJK:  IHMeth=40 ICntrl=    2127 DoSepK=F KAlg= 0 I1Cent=           0 FoldK=F
 IRaf=         0 NMat=       1 IRICut=       1 DoRegI=T DoRafI=F ISym2E= 1 IDoP0=3 IntGTp=3.
 FoFCou: FMM=F IPFlag=           0 FMFlag=      100000 FMFlg1=         800
         NFxFlg=           0 DoJE=F BraDBF=F KetDBF=F FulRan=T
         wScrn=  0.000000 ICntrl=      2127 IOpCl=  0 I1Cent=           0 NGrid=           0
         NMat0=    1 NMatS0=      1 NMatT0=    0 NMatD0=    1 NMtDS0=    0 NMtDT0=    0
 Petite list used in FoFCou.
 Leave Link  703 at Fri Sep  6 14:09:13 2024, MaxMem=  1073741824 cpu:               0.2 elap:               0.0
 (Enter /Users/asuyarger/Applications/G16/g16/l716.exe)
 Dipole        =-1.33833950D-01 8.98746033D-01-8.88178420D-15
 ***** Axes restored to original set *****
 -------------------------------------------------------------------
 Center     Atomic                   Forces (Hartrees/Bohr)
 Number     Number              X              Y              Z
 -------------------------------------------------------------------
      1        6           0.009057852    0.012809092    0.017141614
      2        1           0.001327742    0.001877117   -0.003392383
      3        6          -0.006286998   -0.008891187   -0.017538212
      4        1           0.003142204    0.000013795    0.000676683
      5        1          -0.001033992    0.002967295    0.000676434
      6        1          -0.000702843   -0.000993572    0.002789482
      7        9          -0.007152806   -0.000778909   -0.000177071
      8        9           0.001648841   -0.007003631   -0.000176545
 -------------------------------------------------------------------
 Cartesian Forces:  Max     0.017538212 RMS     0.006820443
 Leave Link  716 at Fri Sep  6 14:09:13 2024, MaxMem=  1073741824 cpu:               0.1 elap:               0.0
 (Enter /Users/asuyarger/Applications/G16/g16/l103.exe)

 GradGradGradGradGradGradGradGradGradGradGradGradGradGradGradGradGradGrad
 Berny optimization.
 Using GEDIIS/GDIIS optimizer.
 FormGI is forming the generalized inverse of G from B-inverse, IUseBI=4.
 Internal  Forces:  Max     0.015834091 RMS     0.003792017
 Search for a local minimum.
 Step number   2 out of a maximum of   38
 All quantities printed in internal units (Hartrees-Bohrs-Radians)
 RMS Force = .37920D-02 SwitMx=.10000D-02 MixMth= 1
 Mixed Optimization -- RFO/linear search
 Update second derivatives using D2CorX and points    1    2
 DE= -5.93D-03 DEPred=-5.98D-03 R= 9.92D-01
 TightC=F SS=  1.41D+00  RLast= 2.65D-01 DXNew= 5.0454D-01 7.9399D-01
 Trust test= 9.92D-01 RLast= 2.65D-01 DXMaxT set to 5.05D-01
 ITU=  1  0
 Use linear search instead of GDIIS.
     Eigenvalues ---    0.00237   0.05234   0.05352   0.05490   0.07968
     Eigenvalues ---    0.15429   0.16000   0.16000   0.16119   0.22697
     Eigenvalues ---    0.22852   0.30484   0.36638   0.37230   0.37230
     Eigenvalues ---    0.37321   0.55021   0.56598
 RFO step:  Lambda=-1.29989136D-03 EMin= 2.36824138D-03
 Quartic linear search produced a step of  0.05270.
 Iteration  1 RMS(Cart)=  0.01070660 RMS(Int)=  0.00008961
 Iteration  2 RMS(Cart)=  0.00004445 RMS(Int)=  0.00007884
 Iteration  3 RMS(Cart)=  0.00000000 RMS(Int)=  0.00007884
 ITry= 1 IFail=0 DXMaxC= 2.43D-02 DCOld= 1.00D+10 DXMaxT= 5.05D-01 DXLimC= 3.00D+00 Rises=F
 ClnCor:  largest displacement from symmetrization is 1.90D-13 for atom     8.
 Variable       Old X    -DE/DX   Delta X   Delta X   Delta X     New X
                                 (Linear)    (Quad)   (Total)
    R1        2.08515   0.00409   0.00333   0.01562   0.01895   2.10410
    R2        2.92369  -0.01583   0.00071  -0.05726  -0.05655   2.86714
    R3        2.55325   0.00719   0.00011   0.01385   0.01396   2.56720
    R4        2.55325   0.00719   0.00011   0.01385   0.01396   2.56720
    R5        2.06147   0.00316   0.00208   0.01146   0.01354   2.07501
    R6        2.06147   0.00316   0.00208   0.01146   0.01354   2.07501
    R7        2.06581   0.00299   0.00231   0.01126   0.01357   2.07938
    A1        2.00588  -0.00050   0.00502   0.00227   0.00707   2.01296
    A2        1.90511  -0.00004  -0.00029  -0.00067  -0.00115   1.90396
    A3        1.90511  -0.00004  -0.00029  -0.00067  -0.00115   1.90396
    A4        1.92681   0.00055   0.00085   0.00354   0.00428   1.93108
    A5        1.92681   0.00055   0.00085   0.00354   0.00428   1.93108
    A6        1.78057  -0.00053  -0.00686  -0.00941  -0.01626   1.76431
    A7        1.93128   0.00051   0.00109   0.00505   0.00610   1.93738
    A8        1.93128   0.00051   0.00109   0.00505   0.00610   1.93738
    A9        1.95400   0.00049   0.00229   0.00479   0.00703   1.96103
   A10        1.88484  -0.00034  -0.00136  -0.00188  -0.00327   1.88157
   A11        1.87995  -0.00063  -0.00162  -0.00691  -0.00857   1.87138
   A12        1.87995  -0.00063  -0.00162  -0.00691  -0.00857   1.87138
    D1       -1.04426  -0.00012   0.00015  -0.00210  -0.00195  -1.04621
    D2        1.04426   0.00012  -0.00015   0.00210   0.00195   1.04621
    D3        3.14159   0.00000   0.00000   0.00000   0.00000   3.14159
    D4        3.07510  -0.00013  -0.00350  -0.00580  -0.00936   3.06574
    D5       -1.11957   0.00011  -0.00381  -0.00160  -0.00546  -1.12504
    D6        0.97776  -0.00001  -0.00366  -0.00370  -0.00741   0.97035
    D7        1.11957  -0.00011   0.00381   0.00160   0.00546   1.12504
    D8       -3.07510   0.00013   0.00350   0.00580   0.00936  -3.06574
    D9       -0.97776   0.00001   0.00366   0.00370   0.00741  -0.97035
         Item               Value     Threshold  Converged?
 Maximum Force            0.015834     0.000015     NO 
 RMS     Force            0.003792     0.000010     NO 
 Maximum Displacement     0.024328     0.000060     NO 
 RMS     Displacement     0.010699     0.000040     NO 
 Predicted change in Energy=-6.721056D-04
 Lowest energy point so far.  Saving SCF results.
 GradGradGradGradGradGradGradGradGradGradGradGradGradGradGradGradGradGrad

 Leave Link  103 at Fri Sep  6 14:09:13 2024, MaxMem=  1073741824 cpu:               0.1 elap:               0.0
 (Enter /Users/asuyarger/Applications/G16/g16/l202.exe)
                          Input orientation:                          
 ---------------------------------------------------------------------
 Center     Atomic      Atomic             Coordinates (Angstroms)
 Number     Number       Type             X           Y           Z
 ---------------------------------------------------------------------
      1          6           0        0.177548   -0.318901   -0.004957
      2          1           0        0.507031    0.146901   -0.961104
      3          6           0        0.665366    0.370971    1.255233
      4          1           0        1.762545    0.385785    1.296257
      5          1           0        0.313763    1.410396    1.296170
      6          1           0        0.311876   -0.128780    2.169611
      7          9           0       -1.177330   -0.418097   -0.002799
      8          9           0        0.535449   -1.629412   -0.002697
 ---------------------------------------------------------------------
                    Distance matrix (angstroms):
                    1          2          3          4          5
     1  C    0.000000
     2  H    1.113440   0.000000
     3  C    1.517225   2.233255   0.000000
     4  H    2.168400   2.594043   1.098046   0.000000
     5  H    2.168400   2.594043   1.098046   1.774485   0.000000
     6  H    2.186993   3.148882   1.100360   1.769736   1.769736
     7  F    1.358506   2.018574   2.366601   3.313101   2.693338
     8  F    1.358506   2.018574   2.366601   2.693338   3.313101
                    6          7          8
     6  H    0.000000
     7  F    2.649680   0.000000
     8  F    2.649680   2.097831   0.000000
 Stoichiometry    C2H4F2
 Framework group  CS[SG(C2H2),X(H2F2)]
 Deg. of freedom    11
 Full point group                 CS      NOp   2
 RotChk:  IX=0 Diff= 3.76D-03
 Largest Abelian subgroup         CS      NOp   2
 Largest concise Abelian subgroup CS      NOp   2
                         Standard orientation:                         
 ---------------------------------------------------------------------
 Center     Atomic      Atomic             Coordinates (Angstroms)
 Number     Number       Type             X           Y           Z
 ---------------------------------------------------------------------
      1          6           0        0.335427    0.197497    0.000000
      2          1           0        1.290111    0.770495    0.000000
      3          6           0       -0.926921    1.039190   -0.000000
      4          1           0       -0.969553    1.684703    0.887242
      5          1           0       -0.969553    1.684703   -0.887242
      6          1           0       -1.839729    0.424720   -0.000000
      7          9           0        0.335427   -0.665819   -1.048916
      8          9           0        0.335427   -0.665819    1.048916
 ---------------------------------------------------------------------
 Rotational constants (GHZ):          10.1388734           8.5625202           5.2665604
 Leave Link  202 at Fri Sep  6 14:09:13 2024, MaxMem=  1073741824 cpu:               0.0 elap:               0.0
 (Enter /Users/asuyarger/Applications/G16/g16/l301.exe)
 Standard basis: VSTO-6G (5D, 7F)
 Ernie: Thresh=  0.10000D-02 Tol=  0.10000D-05 Strict=F.
  NNHCO=     0 NNPyr=     0 NCTC=     0               EPep=         0.000000000
    EC=        64.449783829  ECS=         1.295658017   EG=         0.128010166
   EHC=         0.000357216  EAt=       -44.529382042  AtH=         0.936986650
 EPDDG=         0.000000000  ECC=        65.873809227 EAtT=        45.466368692
 There are    13 symmetry adapted cartesian basis functions of A'  symmetry.
 There are     7 symmetry adapted cartesian basis functions of A"  symmetry.
 There are    13 symmetry adapted basis functions of A'  symmetry.
 There are     7 symmetry adapted basis functions of A"  symmetry.
    20 basis functions,   120 primitive gaussians,    20 cartesian basis functions
    13 alpha electrons       13 beta electrons
       nuclear repulsion energy       111.3401779193 Hartrees.
 IExCor=    0 DFT=F Ex=HF Corr=None ExCW=0 ScaHFX=  1.000000
 ScaDFX=  1.000000  1.000000  1.000000  1.000000 ScalE2=  1.000000  1.000000
 IRadAn=      5 IRanWt=     -1 IRanGd=            0 ICorTp=0 IEmpDi=  4
 Integral buffers will be    131072 words long.
 Regular integral format.
 Two-electron integral symmetry is turned off.
 Leave Link  301 at Fri Sep  6 14:09:13 2024, MaxMem=  1073741824 cpu:               0.1 elap:               0.0
 (Enter /Users/asuyarger/Applications/G16/g16/l302.exe)
 Do NDO integrals.
 NPDir=0 NMtPBC=     1 NCelOv=     1 NCel=       1 NClECP=     1 NCelD=      1
         NCelK=      1 NCelE2=     1 NClLst=     1 CellRange=     0.0.
 One-electron integrals computed using PRISM.
 NBasis=    20 RedAO= T EigKep=  1.00D+00  NBF=    13     7
 NBsUse=    20 1.00D-06 EigRej= -1.00D+00 NBFU=    13     7
 Leave Link  302 at Fri Sep  6 14:09:13 2024, MaxMem=  1073741824 cpu:               0.3 elap:               0.1
 (Enter /Users/asuyarger/Applications/G16/g16/l303.exe)
 DipDrv:  MaxL=1.
 Leave Link  303 at Fri Sep  6 14:09:13 2024, MaxMem=  1073741824 cpu:               0.1 elap:               0.0
 (Enter /Users/asuyarger/Applications/G16/g16/l401.exe)
 Initial guess from the checkpoint file:  "r152a_PM6_Opt_Freq_Full.chk"
 B after Tr=    -0.000000    0.000000    0.000000
         Rot=    0.999996    0.000000    0.000000    0.002738 Ang=   0.31 deg.
 Guess basis will be translated and rotated to current coordinates.
 JPrj=0 DoOrth=T DoCkMO=T.
 Initial guess orbital symmetries:
       Occupied  (A') (A") (A') (A') (A') (A") (A') (A") (A") (A')
                 (A") (A') (A')
       Virtual   (A") (A') (A') (A') (A") (A') (A')
 The electronic state of the initial guess is 1-A'.
 Leave Link  401 at Fri Sep  6 14:09:13 2024, MaxMem=  1073741824 cpu:               0.3 elap:               0.0
 (Enter /Users/asuyarger/Applications/G16/g16/l502.exe)
 Keep J ints in memory in canonical form, NReq=860217.
[...]
     19 -0.341751D-01  0.116492D-01  0.119004D-01  0.414869D-01
     20  0.744850D-02 -0.347919D-02  0.250538D-02  0.290328D-03  0.151153D-01
     21 -0.744850D-02  0.347919D-02 -0.290328D-03 -0.250538D-02  0.599618D-02
     22  0.000000D+00  0.000000D+00 -0.364128D-02  0.364128D-02  0.580691D-02
     23  0.711639D-02 -0.379421D-02  0.301725D-02 -0.327477D-03  0.169863D-02
     24 -0.778061D-02  0.316417D-02  0.221543D-03 -0.312319D-02 -0.742047D-02
     25 -0.332112D-03 -0.315018D-03 -0.312941D-02  0.302347D-02 -0.760974D-02
     26  0.778061D-02 -0.316417D-02  0.312319D-02 -0.221543D-03  0.178778D-02
     27 -0.711639D-02  0.379421D-02  0.327477D-03 -0.301725D-02 -0.733132D-02
     28  0.332112D-03  0.315018D-03 -0.302347D-02  0.312941D-02 -0.752059D-02
               21            22            23            24            25 
     21  0.151153D-01
     22  0.580691D-02  0.150786D-01
     23 -0.733132D-02 -0.740120D-02  0.192625D-01
     24  0.178778D-02 -0.740120D-02  0.102325D-01  0.194408D-01
     25 -0.752059D-02  0.187046D-02  0.101626D-01  0.102518D-01  0.196428D-01
     26 -0.742047D-02 -0.740120D-02 -0.259970D-02 -0.118080D-01 -0.117887D-01
     27  0.169863D-02 -0.740120D-02 -0.116297D-01 -0.259970D-02 -0.116995D-01
     28 -0.760974D-02  0.187046D-02 -0.116995D-01 -0.117887D-01 -0.230848D-02
               26            27            28 
     26  0.194408D-01
     27  0.102325D-01  0.192625D-01
     28  0.102518D-01  0.101626D-01  0.196428D-01
 Leave Link  716 at Fri Sep  6 14:09:16 2024, MaxMem=  1073741824 cpu:               0.2 elap:               0.0
 (Enter /Users/asuyarger/Applications/G16/g16/l103.exe)

 GradGradGradGradGradGradGradGradGradGradGradGradGradGradGradGradGradGrad
 Berny optimization.
 Red2BG is reusing G-inverse.
 Internal  Forces:  Max     0.000010082 RMS     0.000003260
 Search for a local minimum.
 Step number   1 out of a maximum of    2
 All quantities printed in internal units (Hartrees-Bohrs-Radians)
 Second derivative matrix not updated -- analytic derivatives used.
 ITU=  0
     Eigenvalues ---    0.00073   0.03562   0.03593   0.04790   0.08269
     Eigenvalues ---    0.10531   0.11783   0.11788   0.12763   0.17590
     Eigenvalues ---    0.20265   0.25693   0.25956   0.25970   0.28164
     Eigenvalues ---    0.40153   0.41961   0.56413
 Angle between quadratic step and forces=  39.92 degrees.
 Linear search not attempted -- first point.
 Iteration  1 RMS(Cart)=  0.00001354 RMS(Int)=  0.00000000
 Iteration  2 RMS(Cart)=  0.00000000 RMS(Int)=  0.00000000
 ITry= 1 IFail=0 DXMaxC= 2.87D-05 DCOld= 1.00D+10 DXMaxT= 3.00D-01 DXLimC= 3.00D+00 Rises=F
 ClnCor:  largest displacement from symmetrization is 4.76D-13 for atom     5.
 Variable       Old X    -DE/DX   Delta X   Delta X   Delta X     New X
                                 (Linear)    (Quad)   (Total)
    R1        2.10374  -0.00001   0.00000  -0.00004  -0.00004   2.10370
    R2        2.86048  -0.00000   0.00000  -0.00000  -0.00000   2.86048
    R3        2.57222   0.00001   0.00000   0.00002   0.00002   2.57224
    R4        2.57222   0.00001   0.00000   0.00002   0.00002   2.57224
    R5        2.07729   0.00000   0.00000   0.00001   0.00001   2.07730
    R6        2.07729   0.00000   0.00000   0.00001   0.00001   2.07730
    R7        2.08201   0.00001   0.00000   0.00004   0.00004   2.08205
    A1        2.01615   0.00000   0.00000   0.00002   0.00002   2.01616
    A2        1.89456   0.00000   0.00000   0.00001   0.00001   1.89457
    A3        1.89456   0.00000   0.00000   0.00001   0.00001   1.89457
    A4        1.93737  -0.00000   0.00000  -0.00001  -0.00001   1.93735
    A5        1.93737  -0.00000   0.00000  -0.00001  -0.00001   1.93735
    A6        1.76680   0.00000   0.00000  -0.00001  -0.00001   1.76679
    A7        1.94656  -0.00000   0.00000   0.00000   0.00000   1.94656
    A8        1.94656  -0.00000   0.00000   0.00000   0.00000   1.94656
    A9        1.96858  -0.00000   0.00000  -0.00001  -0.00001   1.96856
   A10        1.87422   0.00000   0.00000   0.00003   0.00003   1.87425
   A11        1.86110   0.00000   0.00000  -0.00001  -0.00001   1.86109
   A12        1.86110   0.00000   0.00000  -0.00001  -0.00001   1.86109
    D1       -1.04774  -0.00000   0.00000  -0.00002  -0.00002  -1.04775
    D2        1.04774   0.00000   0.00000   0.00002   0.00002   1.04775
    D3        3.14159  -0.00000   0.00000   0.00000   0.00000  -3.14159
    D4        3.06922  -0.00000   0.00000  -0.00003  -0.00003   3.06918
    D5       -1.11849  -0.00000   0.00000   0.00000   0.00000  -1.11849
    D6        0.97536  -0.00000   0.00000  -0.00002  -0.00002   0.97535
    D7        1.11849   0.00000   0.00000  -0.00000  -0.00000   1.11849
    D8       -3.06922   0.00000   0.00000   0.00003   0.00003  -3.06918
    D9       -0.97536   0.00000   0.00000   0.00002   0.00002  -0.97535
         Item               Value     Threshold  Converged?
 Maximum Force            0.000010     0.000015     YES
 RMS     Force            0.000003     0.000010     YES
 Maximum Displacement     0.000029     0.000060     YES
 RMS     Displacement     0.000014     0.000040     YES
 Predicted change in Energy=-6.384736D-10
 Optimization completed.
    -- Stationary point found.
                           ----------------------------
                           !   Optimized Parameters   !
                           ! (Angstroms and Degrees)  !
 --------------------------                            --------------------------
 ! Name  Definition              Value          Derivative Info.                !
 --------------------------------------------------------------------------------
 ! R1    R(1,2)                  1.1133         -DE/DX =    0.0                 !
 ! R2    R(1,3)                  1.5137         -DE/DX =    0.0                 !
 ! R3    R(1,7)                  1.3612         -DE/DX =    0.0                 !
 ! R4    R(1,8)                  1.3612         -DE/DX =    0.0                 !
 ! R5    R(3,4)                  1.0993         -DE/DX =    0.0                 !
 ! R6    R(3,5)                  1.0993         -DE/DX =    0.0                 !
 ! R7    R(3,6)                  1.1018         -DE/DX =    0.0                 !
 ! A1    A(2,1,3)              115.5166         -DE/DX =    0.0                 !
 ! A2    A(2,1,7)              108.5504         -DE/DX =    0.0                 !
 ! A3    A(2,1,8)              108.5504         -DE/DX =    0.0                 !
 ! A4    A(3,1,7)              111.0029         -DE/DX =    0.0                 !
 ! A5    A(3,1,8)              111.0029         -DE/DX =    0.0                 !
 ! A6    A(7,1,8)              101.2302         -DE/DX =    0.0                 !
 ! A7    A(1,3,4)              111.5297         -DE/DX =    0.0                 !
 ! A8    A(1,3,5)              111.5297         -DE/DX =    0.0                 !
 ! A9    A(1,3,6)              112.7912         -DE/DX =    0.0                 !
 ! A10   A(4,3,5)              107.3851         -DE/DX =    0.0                 !
 ! A11   A(4,3,6)              106.6329         -DE/DX =    0.0                 !
 ! A12   A(5,3,6)              106.6329         -DE/DX =    0.0                 !
 ! D1    D(2,1,3,4)            -60.0309         -DE/DX =    0.0                 !
 ! D2    D(2,1,3,5)             60.0309         -DE/DX =    0.0                 !
 ! D3    D(2,1,3,6)           -180.0            -DE/DX =    0.0                 !
 ! D4    D(7,1,3,4)            175.8532         -DE/DX =    0.0                 !
 ! D5    D(7,1,3,5)            -64.085          -DE/DX =    0.0                 !
 ! D6    D(7,1,3,6)             55.8841         -DE/DX =    0.0                 !
 ! D7    D(8,1,3,4)             64.085          -DE/DX =    0.0                 !
 ! D8    D(8,1,3,5)           -175.8532         -DE/DX =    0.0                 !
 ! D9    D(8,1,3,6)            -55.8841         -DE/DX =    0.0                 !
 --------------------------------------------------------------------------------
 GradGradGradGradGradGradGradGradGradGradGradGradGradGradGradGradGradGrad

 Leave Link  103 at Fri Sep  6 14:09:16 2024, MaxMem=  1073741824 cpu:               0.1 elap:               0.0
 (Enter /Users/asuyarger/Applications/G16/g16/l9999.exe)

 ----------------------------------------------------------------------

 Electric dipole moment (input orientation):
 (Debye = 10**-18 statcoulomb cm , SI units = C m)
                  (au)            (Debye)         (10**-30 SI)
   Tot        0.957600D+00      0.243398D+01      0.811887D+01
   x          0.544319D+00      0.138352D+01      0.461493D+01
   y          0.769672D+00      0.195631D+01      0.652555D+01
   z          0.168285D+00      0.427737D+00      0.142678D+01

 Dipole polarizability, Alpha (input orientation).
 (esu units = cm**3 , SI units = C**2 m**2 J**-1)
 Alpha(0;0):
               (au)            (10**-24 esu)      (10**-40 SI)
   iso        0.179523D+02      0.266026D+01      0.295994D+01
   aniso      0.637446D+01      0.944597D+00      0.105101D+01
   xx         0.201093D+02      0.297989D+01      0.331558D+01
   yx        -0.723505D+00     -0.107212D+00     -0.119290D+00
   yy         0.195981D+02      0.290414D+01      0.323129D+01
   zx         0.838988D+00      0.124325D+00      0.138330D+00
   zy         0.118577D+01      0.175713D+00      0.195507D+00
   zz         0.141495D+02      0.209674D+01      0.233294D+01

 First dipole hyperpolarizability, Beta (input orientation).
 ||, _|_  parallel and perpendicular components, (z) with respect to z axis,
 vector components x,y,z.  Values do not include the 1/n! factor of 1/2.
 (esu units = statvolt**-1 cm**4 , SI units = C**3 m**3 J**-2)
 Beta(0;0,0):
               (au)            (10**-30 esu)      (10**-50 SI)
   || (z)    -0.886222D+01     -0.765627D-01     -0.284155D-01
   _|_(z)    -0.295407D+01     -0.255209D-01     -0.947183D-02
   x          0.546135D+02      0.471818D+00      0.175111D+00
   y          0.772188D+02      0.667111D+00      0.247591D+00
   z         -0.443111D+02     -0.382813D+00     -0.142077D+00
   ||         0.208891D+02      0.180466D+00      0.669780D-01
   xxx        0.247650D+02      0.213951D+00      0.794057D-01
   xxy        0.276081D+01      0.238512D-01      0.885215D-02
   yxy       -0.749561D+01     -0.647562D-01     -0.240336D-01
   yyy        0.216576D+02      0.187105D+00      0.694420D-01
   xxz       -0.167273D+01     -0.144511D-01     -0.536339D-02
   yxz       -0.463989D+01     -0.400851D-01     -0.148772D-01
   yyz       -0.495390D+01     -0.427979D-01     -0.158840D-01
   zxz        0.935085D+00      0.807841D-02      0.299822D-02
   zyz        0.132123D+01      0.114144D-01      0.423635D-02
   zzz       -0.814373D+01     -0.703555D-01     -0.261118D-01

 ----------------------------------------------------------------------

 Dipole orientation:
     6          0.48051615         -0.39760602         -0.29724438
     1          1.61906228          1.21213867          0.43634983
     6         -0.70616769         -2.07541071          1.69250365
     1          0.73199119         -2.94100564          2.91626238
     1         -2.00139297         -1.00772768          2.91626238
     1         -1.81174349         -3.63853997          0.87452472
     9         -1.30112127          0.52627564         -1.90613592
     9          1.94511574         -1.76973476         -1.90613592

 Electric dipole moment (dipole orientation):
 (Debye = 10**-18 statcoulomb cm , SI units = C m)
                  (au)            (Debye)         (10**-30 SI)
   Tot        0.957600D+00      0.243398D+01      0.811887D+01
   x          0.000000D+00      0.000000D+00      0.000000D+00
   y          0.000000D+00      0.000000D+00      0.000000D+00
   z          0.957600D+00      0.243398D+01      0.811887D+01

 Dipole polarizability, Alpha (dipole orientation).
 (esu units = cm**3 , SI units = C**2 m**2 J**-1)
 Alpha(0;0):
               (au)            (10**-24 esu)      (10**-40 SI)
   iso        0.179523D+02      0.266026D+01      0.295994D+01
   aniso      0.637446D+01      0.944597D+00      0.105101D+01
   xx         0.183464D+02      0.271866D+01      0.302491D+01
   yx        -0.321601D+01     -0.476564D+00     -0.530248D+00
   yy         0.160740D+02      0.238193D+01      0.265025D+01
   zx        -0.293785D+00     -0.435345D-01     -0.484386D-01
   zy        -0.415371D+00     -0.615516D-01     -0.684854D-01
   zz         0.194365D+02      0.288019D+01      0.320465D+01

 First dipole hyperpolarizability, Beta (dipole orientation).
 ||, _|_  parallel and perpendicular components, (z) with respect to z axis,
 vector components x,y,z.  Values do not include the 1/n! factor of 1/2.
 (esu units = statvolt**-1 cm**4 , SI units = C**3 m**3 J**-2)
 Beta(0;0,0):
               (au)            (10**-30 esu)      (10**-50 SI)
   || (z)     0.170642D+02      0.147422D+00      0.547140D-01
   _|_(z)     0.568807D+01      0.491405D-01      0.182380D-01
   x          0.347869D+02      0.300532D+00      0.111539D+00
   y          0.491838D+02      0.424910D+00      0.157701D+00
   z          0.853211D+02      0.737108D+00      0.273570D+00
   ||         0.208891D+02      0.180466D+00      0.669780D-01
   xxx        0.399104D+01      0.344794D-01      0.127967D-01
   xxy        0.255919D+01      0.221094D-01      0.820568D-02
   yxy        0.252894D+01      0.218481D-01      0.810870D-02
   yyy        0.665915D+01      0.575298D-01      0.213516D-01
   xxz        0.141936D+02      0.122622D+00      0.455098D-01
   yxz       -0.782667D+01     -0.676163D-01     -0.250951D-01
   yyz        0.866346D+01      0.748455D-01      0.277782D-01
   zxz        0.507565D+01      0.438497D-01      0.162744D-01
   zyz        0.717626D+01      0.619973D-01      0.230097D-01
   zzz        0.558331D+01      0.482354D-01      0.179021D-01

 ----------------------------------------------------------------------
 1\1\GINC-JEFFSMACSTUDIO\Freq\RPM6\ZDO\C2H4F2\ROOT\06-Sep-2024\0\\#P Ge
 om=AllCheck Guess=TCheck SCRF=Check GenChk RPM6/ZDO Freq\\r152a PM6 Op
 t Freq - Full - NBO\\0,1\C,0.1767498783,-0.32002975,-0.0030667915\H,0.
 5033257869,0.1416618079,-0.9619820686\C,0.6648635208,0.3702604709,1.25
 25343661\H,1.7628554505,0.3886589873,1.3019080672\H,0.3163690504,1.411
 6465265,1.3018216155\H,0.3159722134,-0.1229878454,2.173858153\F,-1.180
 8851186,-0.4177101401,-0.0097303934\F,0.5369991688,-1.6326363361,-0.00
 96277212\\Version=EM64M-G16RevA.03\State=1-A'\HF=-0.1865014\RMSD=1.487
 e-09\RMSF=5.363e-06\ZeroPoint=0.0548544\Thermal=0.0593784\Dipole=0.544
 3192,0.769672,0.1682849\DipoleDeriv=1.1159646,-0.1533979,0.1412257,-0.
 1533986,1.0075734,0.1996363,0.1328166,0.187746,0.5805901,-0.0069766,0.
 0314639,-0.0613956,0.0314641,0.0152501,-0.086799,-0.0587905,-0.0831155
 ,0.1278786,-0.829489,-0.005506,0.0257154,-0.0055105,-0.8333822,0.03636
 33,-0.0273444,-0.0386623,-0.7995208,0.2659877,0.01772,0.010747,-0.0076
 702,0.2115958,-0.0238417,0.0032069,-0.0158822,0.1921872,0.2144802,-0.0
 258743,-0.026057,-0.0004839,0.2631066,0.0021851,-0.0160414,-0.0022742,
 0.1921838,0.2199494,-0.0081613,-0.031979,-0.0081597,0.2141779,-0.04521
 55,-0.0132192,-0.0186895,0.2516789,-0.64836,0.0741101,-0.0635568,-0.04
 23084,-0.280757,-0.0168283,-0.0159471,-0.0105814,-0.2725023,-0.3315568
 ,0.0696453,0.005301,0.186067,-0.5975651,-0.065499,-0.0046786,-0.018537
 6,-0.2724975\Polar=20.109299,-0.7235054,19.5981046,0.8389876,1.1857668
 ,14.149534\HyperPolar=24.7650344,2.7608087,-7.4956074,21.6575693,-1.67
 27328,-4.6398941,-4.9539018,0.9350851,1.3212338,-8.1437343\PG=CS [SG(C
 2H2),X(H2F2)]\NImag=0\\0.51265269,0.02018164,0.52691838,0.01184285,0.0
 1674372,0.47639584,-0.04587597,-0.01809532,0.03824554,0.06649626,-0.01
 809508,-0.05865782,0.05406765,0.02633804,0.08510159,0.04102763,0.05800
 148,-0.16169675,-0.05214215,-0.07371532,0.19894776,-0.07694522,-0.0167
 7236,-0.03616137,0.00542656,-0.00019605,0.00166171,0.41991252,-0.01677
 226,-0.08880560,-0.05114125,-0.00019676,0.00528730,0.00234649,0.006294
 58,0.42436429,-0.03497893,-0.04946930,-0.17994639,-0.00673080,-0.00952
 036,-0.03154723,0.01683430,0.02380596,0.44567720,-0.01847609,-0.009039
 31,-0.01423930,0.00038554,0.00044990,-0.00021685,-0.21819079,-0.002708
 73,-0.00818431,0.26475408,-0.01483593,0.00166236,-0.00591826,0.0001681
 7,0.00018018,-0.00012084,-0.00136291,-0.03453595,-0.00049373,0.0071308
 2,0.03582378,-0.02579382,-0.00586481,-0.00653285,-0.00016703,-0.000188
 47,-0.00062420,-0.00459530,-0.00043918,-0.03425431,0.01546951,0.005645
 36,0.04200907,0.00692692,-0.00585690,-0.00083433,0.00000883,0.00003505
 ,-0.00004163,-0.05364542,0.05678472,0.00225665,-0.01383781,0.02205993,
 -0.00046203,0.05675799,-0.00006093,-0.02374318,-0.01539660,0.00031679,
 0.00055688,-0.00024477,0.05543910,-0.19908228,-0.00786746,0.00827417,-
 0.00311835,0.00019746,-0.06637213,0.24382169,0.00306557,-0.02627355,-0
 .00653033,-0.00012201,-0.00022035,-0.00062419,0.00111234,-0.00446524,-
 0.03425334,0.00033824,-0.00036768,0.00389267,0.00017344,0.01644990,0.0
 4200724,0.00740709,0.00253674,-0.00635031,-0.00025654,-0.00074210,-0.0
 0103399,-0.05449256,-0.02721155,0.04966791,-0.01409032,-0.01156444,0.0
 1828097,0.00550855,0.00285425,-0.00359491,0.05741258,0.00253740,0.0091
 9976,-0.00898294,-0.00074207,-0.00078117,-0.00146224,-0.02721174,-0.07
 371596,0.07021893,-0.00407066,0.00243061,0.00264695,-0.00464008,-0.017
 16654,0.01811886,0.03390732,0.08136677,0.00152374,0.00215083,-0.038249
 05,-0.00064525,-0.00091256,-0.00201894,0.04745072,0.06708386,-0.160908
 23,0.00753457,0.00334861,-0.00132783,0.00064765,0.00822088,-0.00132954
 ,-0.05660453,-0.08002330,0.20503667,-0.33558781,-0.04347689,0.00837418
 ,-0.03207475,-0.00712918,0.01072899,-0.02940554,-0.01265892,-0.0192963
 7,0.00000131,-0.00138283,-0.00254069,-0.00147113,-0.00009691,-0.000358
 84,-0.00134926,-0.00014221,-0.00020639,0.46218227,-0.03036181,-0.04054
 514,0.00203410,-0.01407434,0.00313766,0.00380809,-0.01651879,0.0016185
 0,-0.00636227,-0.00026634,-0.00086197,-0.00154910,-0.00053989,-0.00065
 525,-0.00033009,-0.00006555,-0.00006172,0.00024470,0.00811428,0.060620
 20,0.00364134,0.00094258,-0.04171982,0.02555331,0.00479633,-0.00121705
 ,-0.02914311,-0.00728644,-0.00238553,-0.00065558,-0.00158353,-0.002829
 88,-0.00046542,-0.00021357,-0.00033274,-0.00071907,0.00012123,-0.00060
 153,0.00282636,0.00308011,0.04402798,-0.05010258,0.07052259,-0.0008769
 5,0.00588998,-0.00066053,0.00001633,0.00734030,-0.00353104,0.00043156,
 -0.00054576,-0.00021286,-0.00019167,-0.00024789,-0.00035440,-0.0006138
 3,-0.00013943,0.00036206,0.00029950,-0.06229483,0.05371225,-0.00103837
 ,0.10010081,0.05740715,-0.32602958,0.00859401,0.00628555,-0.03482466,0
 .01138714,0.00032820,-0.03513042,-0.02031174,0.00023013,-0.00158066,-0
 .00044823,-0.00147079,-0.00061284,-0.00291190,0.00028537,-0.00127164,-
 0.00011300,0.05677257,-0.02325175,0.00014333,-0.11983815,0.42270176,-0
 .00032843,0.00376898,-0.04172062,-0.00399157,0.02569312,-0.00121946,0.
 00284079,-0.02990407,-0.00238244,-0.00004632,-0.00050993,-0.00033271,-
 0.00127433,-0.00114588,-0.00282980,0.00035391,-0.00063752,-0.00060143,
 0.00047255,-0.00092541,0.00505872,0.00197362,0.00366023,0.04402788\\-0
 .00000845,-0.00001195,0.00001002,0.00000234,0.00000331,-0.00000774,-0.
 00000239,-0.00000338,0.00000835,-0.00000249,0.00000124,0.00000003,0.00
 000200,-0.00000193,0.00000003,0.00000355,0.00000502,-0.00000803,0.0000
 0667,0.00000105,-0.00000133,-0.00000124,0.00000664,-0.00000133\\\@


 READER, WHETHER YOU BE DILETTANTE OR PROFESSOR ... SHOW YOURSELF TO BE
 MORE HUMAN THAN CRITICAL, AND THEN YOUR PLEASURE WILL INCREASE.
                                           -- DOMENICO SCARLATTI (1738)
 Job cpu time:       0 days  0 hours  0 minutes  1.1 seconds.
 Elapsed time:       0 days  0 hours  0 minutes  0.8 seconds.
 File lengths (MBytes):  RWF=      6 Int=      0 D2E=      0 Chk=      2 Scr=      1
 Normal termination of Gaussian 16 at Fri Sep  6 14:09:16 2024.
