 Entering Gaussian System, Link 0=g16
 Input=/Users/asuyarger/Downloads/r1234yf_HF_6311pp2d3p_Opt_Freq_Full_NBO_Raman.gjf
 Output=/Users/asuyarger/Downloads/r1234yf_HF_6311pp2d3p_Opt_Freq_Full_NBO_Raman.log
 Initial command:
 /Users/asuyarger/Applications/G16/g16/l1.exe "/Users/asuyarger/Applications/G16/scratch/Gau-91250.inp" -scrdir="/Users/asuyarger/Applications/G16/scratch/"
 Entering Link 1 = /Users/asuyarger/Applications/G16/g16/l1.exe PID=     91251.
  
 Copyright (c) 1988,1990,1992,1993,1995,1998,2003,2009,2016,
            Gaussian, Inc.  All Rights Reserved.
  
 This is part of the Gaussian(R) 16 program.  It is based on
 the Gaussian(R) 09 system (copyright 2009, Gaussian, Inc.),
 the Gaussian(R) 03 system (copyright 2003, Gaussian, Inc.),
 the Gaussian(R) 98 system (copyright 1998, Gaussian, Inc.),
 the Gaussian(R) 94 system (copyright 1995, Gaussian, Inc.),
 the Gaussian 92(TM) system (copyright 1992, Gaussian, Inc.),
 the Gaussian 90(TM) system (copyright 1990, Gaussian, Inc.),
 the Gaussian 88(TM) system (copyright 1988, Gaussian, Inc.),
 the Gaussian 86(TM) system (copyright 1986, Carnegie Mellon
 University), and the Gaussian 82(TM) system (copyright 1983,
 Carnegie Mellon University). Gaussian is a federally registered
 trademark of Gaussian, Inc.
  
 This software contains proprietary and confidential information,
 including trade secrets, belonging to Gaussian, Inc.
  
 This software is provided under written license and may be
 used, copied, transmitted, or stored only in accord with that
 written license.
  
 The following legend is applicable only to US Government
 contracts under FAR:
  
                    RESTRICTED RIGHTS LEGEND
  
 Use, reproduction and disclosure by the US Government is
 subject to restrictions as set forth in subparagraphs (a)
 and (c) of the Commercial Computer Software - Restricted
 Rights clause in FAR 52.227-19.
  
 Gaussian, Inc.
 340 Quinnipiac St., Bldg. 40, Wallingford CT 06492
  
  
 ---------------------------------------------------------------
 Warning -- This program may not be used in any manner that
 competes with the business of Gaussian, Inc. or will provide
 assistance to any competitor of Gaussian, Inc.  The licensee
 of this program is prohibited from giving any competitor of
 Gaussian, Inc. access to this program.  By using this program,
 the user acknowledges that Gaussian, Inc. is engaged in the
 business of creating and licensing software in the field of
 computational chemistry and represents and warrants to the
 licensee that it is not a competitor of Gaussian, Inc. and that
 it will not use this program in any manner prohibited above.
 ---------------------------------------------------------------
  

 Cite this work as:
 Gaussian 16, Revision A.03,
 M. J. Frisch, G. W. Trucks, H. B. Schlegel, G. E. Scuseria, 
 M. A. Robb, J. R. Cheeseman, G. Scalmani, V. Barone, 
 G. A. Petersson, H. Nakatsuji, X. Li, M. Caricato, A. V. Marenich, 
 J. Bloino, B. G. Janesko, R. Gomperts, B. Mennucci, H. P. Hratchian, 
 J. V. Ortiz, A. F. Izmaylov, J. L. Sonnenberg, D. Williams-Young, 
 F. Ding, F. Lipparini, F. Egidi, J. Goings, B. Peng, A. Petrone, 
 T. Henderson, D. Ranasinghe, V. G. Zakrzewski, J. Gao, N. Rega, 
 G. Zheng, W. Liang, M. Hada, M. Ehara, K. Toyota, R. Fukuda, 
 J. Hasegawa, M. Ishida, T. Nakajima, Y. Honda, O. Kitao, H. Nakai, 
 T. Vreven, K. Throssell, J. A. Montgomery, Jr., J. E. Peralta, 
 F. Ogliaro, M. J. Bearpark, J. J. Heyd, E. N. Brothers, K. N. Kudin, 
 V. N. Staroverov, T. A. Keith, R. Kobayashi, J. Normand, 
 K. Raghavachari, A. P. Rendell, J. C. Burant, S. S. Iyengar, 
 J. Tomasi, M. Cossi, J. M. Millam, M. Klene, C. Adamo, R. Cammi, 
 J. W. Ochterski, R. L. Martin, K. Morokuma, O. Farkas, 
 J. B. Foresman, and D. J. Fox, Gaussian, Inc., Wallingford CT, 2016.
 
 ******************************************
 Gaussian 16:  EM64M-G16RevA.03 25-Dec-2016
                 6-Sep-2024 
 ******************************************
 %nprocshared=8
 Will use up to    8 processors via shared memory.
 %mem=8GB
 %chk=r1234yf_HF_6311pp2d3p_Opt_Freq_Full_NBO_Raman.chk
 ----------------------------------------------------------------------
 #p opt=tight freq=raman hf/6-311++g(2d,3p) guess=save pop=(hirshfeld,f
 ull,nbo) geom=connectivity polar
 ----------------------------------------------------------------------
 1/7=10,18=20,19=15,38=1,57=2/1,3;
 2/9=110,12=2,17=6,18=5,40=1/2;
 3/5=4,6=6,7=1512,11=9,25=1,30=1,71=1/1,2,3;
 4//1;
 5/5=2,38=5,98=1/2;
 6/7=3,28=1,40=1,79=1/1,7;
 7//1,2,3,16;
 1/7=10,18=20,19=15/3(2);
 2/9=110/2;
 99//99;
 2/9=110/2;
 3/5=4,6=6,7=1512,11=9,25=1,30=1,71=1/1,2,3;
 4/5=5,16=3,69=1/1;
 5/5=2,38=5,98=1/2;
 7//1,2,3,16;
 1/7=10,18=20,19=15/3(-5);
 2/9=110/2;
 6/7=3,19=2,28=1,40=1,79=1/1,7;
 99/9=1/99;
 Leave Link    1 at Fri Sep  6 14:12:02 2024, MaxMem=  1073741824 cpu:               0.2 elap:               0.0
 (Enter /Users/asuyarger/Applications/G16/g16/l101.exe)
 ----------------------------------------
 r152a HF 6-311++g(2d,3p) Opt Freq - Full
 ----------------------------------------
 Symbolic Z-matrix:
 Charge =  0 Multiplicity = 1
 C                     0.33216   0.19387   0. 
 H                     1.29537   0.75203   0. 
 C                    -0.91694   1.04889   0. 
 H                    -0.9613    1.69826   0.88584 
 H                    -0.9613    1.69826  -0.88584 
 H                    -1.84286   0.45179   0. 
 F                     0.33216  -0.66983  -1.05204 
 F                     0.33216  -0.66983   1.05204 
 
 ITRead=  0  0  0  0  0  0  0  0
 MicOpt= -1 -1 -1 -1 -1 -1 -1 -1
 NAtoms=      8 NQM=        8 NQMF=       0 NMMI=      0 NMMIF=      0
                NMic=       0 NMicF=      0.
                    Isotopes and Nuclear Properties:
 (Nuclear quadrupole moments (NQMom) in fm**2, nuclear magnetic moments (NMagM)
  in nuclear magnetons)

  Atom         1           2           3           4           5           6           7           8
 IAtWgt=          12           1          12           1           1           1          19          19
 AtmWgt=  12.0000000   1.0078250  12.0000000   1.0078250   1.0078250   1.0078250  18.9984033  18.9984033
 NucSpn=           0           1           0           1           1           1           1           1
 AtZEff=  -0.0000000  -0.0000000  -0.0000000  -0.0000000  -0.0000000  -0.0000000  -0.0000000  -0.0000000
 NQMom=    0.0000000   0.0000000   0.0000000   0.0000000   0.0000000   0.0000000   0.0000000   0.0000000
 NMagM=    0.0000000   2.7928460   0.0000000   2.7928460   2.7928460   2.7928460   2.6288670   2.6288670
 AtZNuc=   6.0000000   1.0000000   6.0000000   1.0000000   1.0000000   1.0000000   9.0000000   9.0000000
 Leave Link  101 at Fri Sep  6 14:12:02 2024, MaxMem=  1073741824 cpu:               1.3 elap:               0.2
 (Enter /Users/asuyarger/Applications/G16/g16/l103.exe)

 GradGradGradGradGradGradGradGradGradGradGradGradGradGradGradGradGradGrad
 Berny optimization.
 Initialization pass.
                           ----------------------------
                           !    Initial Parameters    !
                           ! (Angstroms and Degrees)  !
 --------------------------                            --------------------------
 ! Name  Definition              Value          Derivative Info.                !
 --------------------------------------------------------------------------------
 ! R1    R(1,2)                  1.1133         estimate D2E/DX2                !
 ! R2    R(1,3)                  1.5137         estimate D2E/DX2                !
 ! R3    R(1,7)                  1.3612         estimate D2E/DX2                !
 ! R4    R(1,8)                  1.3612         estimate D2E/DX2                !
 ! R5    R(3,4)                  1.0993         estimate D2E/DX2                !
 ! R6    R(3,5)                  1.0993         estimate D2E/DX2                !
 ! R7    R(3,6)                  1.1018         estimate D2E/DX2                !
 ! A1    A(2,1,3)              115.5166         estimate D2E/DX2                !
 ! A2    A(2,1,7)              108.5504         estimate D2E/DX2                !
 ! A3    A(2,1,8)              108.5504         estimate D2E/DX2                !
 ! A4    A(3,1,7)              111.0029         estimate D2E/DX2                !
 ! A5    A(3,1,8)              111.0029         estimate D2E/DX2                !
 ! A6    A(7,1,8)              101.2302         estimate D2E/DX2                !
 ! A7    A(1,3,4)              111.5297         estimate D2E/DX2                !
 ! A8    A(1,3,5)              111.5297         estimate D2E/DX2                !
 ! A9    A(1,3,6)              112.7912         estimate D2E/DX2                !
 ! A10   A(4,3,5)              107.3852         estimate D2E/DX2                !
 ! A11   A(4,3,6)              106.6329         estimate D2E/DX2                !
 ! A12   A(5,3,6)              106.6329         estimate D2E/DX2                !
 ! D1    D(2,1,3,4)            -60.0309         estimate D2E/DX2                !
 ! D2    D(2,1,3,5)             60.0309         estimate D2E/DX2                !
 ! D3    D(2,1,3,6)            180.0            estimate D2E/DX2                !
 ! D4    D(7,1,3,4)            175.8532         estimate D2E/DX2                !
 ! D5    D(7,1,3,5)            -64.085          estimate D2E/DX2                !
 ! D6    D(7,1,3,6)             55.8841         estimate D2E/DX2                !
 ! D7    D(8,1,3,4)             64.085          estimate D2E/DX2                !
 ! D8    D(8,1,3,5)           -175.8532         estimate D2E/DX2                !
 ! D9    D(8,1,3,6)            -55.8841         estimate D2E/DX2                !
 --------------------------------------------------------------------------------
 Trust Radius=3.00D-01 FncErr=1.00D-07 GrdErr=1.00D-07 EigMax=2.50D+02 EigMin=1.00D-04
 Number of steps in this run=     38 maximum allowed number of steps=    100.
 GradGradGradGradGradGradGradGradGradGradGradGradGradGradGradGradGradGrad

 Leave Link  103 at Fri Sep  6 14:12:02 2024, MaxMem=  1073741824 cpu:               0.1 elap:               0.0
 (Enter /Users/asuyarger/Applications/G16/g16/l202.exe)
                          Input orientation:                          
 ---------------------------------------------------------------------
 Center     Atomic      Atomic             Coordinates (Angstroms)
 Number     Number       Type             X           Y           Z
 ---------------------------------------------------------------------
      1          6           0        0.332155    0.193867    0.000000
      2          1           0        1.295371    0.752027    0.000000
      3          6           0       -0.916937    1.048887    0.000000
      4          1           0       -0.961298    1.698262    0.885837
      5          1           0       -0.961298    1.698262   -0.885837
      6          1           0       -1.842860    0.451790    0.000000
      7          9           0        0.332155   -0.669826   -1.052042
      8          9           0        0.332155   -0.669826    1.052042
 ---------------------------------------------------------------------
                    Distance matrix (angstroms):
                    1          2          3          4          5
     1  C    0.000000
     2  H    1.113251   0.000000
     3  C    1.513701   2.232136   0.000000
     4  H    2.172771   2.602426   1.099256   0.000000
     5  H    2.172771   2.602426   1.099256   1.771674   0.000000
     6  H    2.190254   3.152560   1.101752   1.765092   1.765092
     7  F    1.361161   2.014012   2.370864   3.322083   2.703421
     8  F    1.361161   2.014012   2.370864   2.703421   3.322083
                    6          7          8
     6  H    0.000000
     7  F    2.663739   0.000000
     8  F    2.663739   2.104084   0.000000
 Stoichiometry    C2H4F2
 Framework group  CS[SG(C2H2),X(H2F2)]
 Deg. of freedom    11
 Full point group                 CS      NOp   2
 Largest Abelian subgroup         CS      NOp   2
 Largest concise Abelian subgroup CS      NOp   2
                         Standard orientation:                         
 ---------------------------------------------------------------------
 Center     Atomic      Atomic             Coordinates (Angstroms)
 Number     Number       Type             X           Y           Z
 ---------------------------------------------------------------------
      1          6           0        0.332155    0.193867    0.000000
      2          1           0        1.295371    0.752027    0.000000
      3          6           0       -0.916937    1.048887   -0.000000
      4          1           0       -0.961298    1.698262    0.885837
      5          1           0       -0.961298    1.698262   -0.885837
      6          1           0       -1.842860    0.451790   -0.000000
      7          9           0        0.332155   -0.669826   -1.052042
      8          9           0        0.332155   -0.669826    1.052042
 ---------------------------------------------------------------------
 Rotational constants (GHZ):          10.1054317           8.5372046           5.2393056
 Leave Link  202 at Fri Sep  6 14:12:02 2024, MaxMem=  1073741824 cpu:               0.0 elap:               0.0
 (Enter /Users/asuyarger/Applications/G16/g16/l301.exe)
 Standard basis: 6-311++G(2d,3p) (5D, 7F)
 Ernie: Thresh=  0.10000D-02 Tol=  0.10000D-05 Strict=F.
 There are   104 symmetry adapted cartesian basis functions of A'  symmetry.
 There are    64 symmetry adapted cartesian basis functions of A"  symmetry.
 There are    98 symmetry adapted basis functions of A'  symmetry.
 There are    62 symmetry adapted basis functions of A"  symmetry.
   160 basis functions,   228 primitive gaussians,   168 cartesian basis functions
    17 alpha electrons       17 beta electrons
       nuclear repulsion energy       132.5235672867 Hartrees.
 IExCor=    0 DFT=F Ex=HF Corr=None ExCW=0 ScaHFX=  1.000000
 ScaDFX=  1.000000  1.000000  1.000000  1.000000 ScalE2=  1.000000  1.000000
 IRadAn=      5 IRanWt=     -1 IRanGd=            0 ICorTp=0 IEmpDi=  4
 NAtoms=    8 NActive=    8 NUniq=    6 SFac= 1.78D+00 NAtFMM=   60 NAOKFM=F Big=F
 Integral buffers will be    131072 words long.
 Raffenetti 1 integral format.
 Two-electron integral symmetry is turned on.
 Leave Link  301 at Fri Sep  6 14:12:02 2024, MaxMem=  1073741824 cpu:               0.2 elap:               0.0
 (Enter /Users/asuyarger/Applications/G16/g16/l302.exe)
 NPDir=0 NMtPBC=     1 NCelOv=     1 NCel=       1 NClECP=     1 NCelD=      1
         NCelK=      1 NCelE2=     1 NClLst=     1 CellRange=     0.0.
 One-electron integrals computed using PRISM.
 One-electron integral symmetry used in STVInt
 NBasis=   160 RedAO= T EigKep=  9.13D-05  NBF=    98    62
 NBsUse=   160 1.00D-06 EigRej= -1.00D+00 NBFU=    98    62
 Leave Link  302 at Fri Sep  6 14:12:02 2024, MaxMem=  1073741824 cpu:               0.7 elap:               0.1
 (Enter /Users/asuyarger/Applications/G16/g16/l303.exe)
 DipDrv:  MaxL=1.
 Leave Link  303 at Fri Sep  6 14:12:02 2024, MaxMem=  1073741824 cpu:               0.1 elap:               0.0
 (Enter /Users/asuyarger/Applications/G16/g16/l401.exe)
 ExpMin= 3.60D-02 ExpMax= 1.14D+04 ExpMxC= 1.72D+03 IAcc=3 IRadAn=         5 AccDes= 0.00D+00
 Harris functional with IExCor=  205 and IRadAn=       5 diagonalized for initial guess.
 HarFok:  IExCor=  205 AccDes= 0.00D+00 IRadAn=         5 IDoV= 1 UseB2=F ITyADJ=14
 ICtDFT=  3500011 ScaDFX=  1.000000  1.000000  1.000000  1.000000
 FoFCou: FMM=F IPFlag=           0 FMFlag=      100000 FMFlg1=           0
         NFxFlg=           0 DoJE=T BraDBF=F KetDBF=T FulRan=T
         wScrn=  0.000000 ICntrl=       500 IOpCl=  0 I1Cent=   200000004 NGrid=           0
         NMat0=    1 NMatS0=      1 NMatT0=    0 NMatD0=    1 NMtDS0=    0 NMtDT0=    0
 Petite list used in FoFCou.
 Harris En= -277.146147325493    
 JPrj=0 DoOrth=F DoCkMO=F.
 Initial guess orbital symmetries:
       Occupied  (A') (A") (A') (A') (A') (A") (A') (A') (A') (A")
                 (A') (A") (A') (A') (A") (A") (A')
       Virtual   (A') (A') (A") (A") (A') (A') (A') (A") (A') (A')
                 (A') (A") (A') (A') (A") (A') (A') (A') (A") (A')
                 (A') (A") (A') (A") (A') (A") (A') (A') (A") (A')
                 (A") (A') (A') (A") (A') (A') (A") (A") (A') (A')
                 (A') (A") (A') (A') (A") (A') (A") (A') (A') (A')
                 (A") (A') (A') (A") (A') (A") (A') (A') (A") (A')
                 (A') (A') (A") (A") (A') (A') (A") (A") (A") (A')
                 (A') (A") (A") (A') (A") (A') (A") (A') (A') (A")
                 (A') (A") (A') (A') (A") (A') (A") (A') (A') (A")
                 (A') (A") (A') (A') (A') (A') (A") (A') (A") (A')
                 (A') (A") (A') (A") (A') (A') (A") (A') (A') (A")
                 (A') (A') (A") (A") (A') (A') (A") (A") (A') (A")
                 (A') (A") (A') (A") (A') (A') (A') (A") (A') (A")
                 (A") (A') (A') (A") (A') (A") (A') (A') (A") (A')
                 (A') (A") (A')
 The electronic state of the initial guess is 1-A'.
 Leave Link  401 at Fri Sep  6 14:12:02 2024, MaxMem=  1073741824 cpu:               1.2 elap:               0.2
 (Enter /Users/asuyarger/Applications/G16/g16/l502.exe)
 Keep R1 ints in memory in symmetry-blocked form, NReq=124594963.
 FoFCou: FMM=F IPFlag=           0 FMFlag=           0 FMFlg1=           0
         NFxFlg=           0 DoJE=F BraDBF=F KetDBF=F FulRan=T
         wScrn=  0.000000 ICntrl=       600 IOpCl=  0 I1Cent=           0 NGrid=           0
         NMat0=    1 NMatS0=  12880 NMatT0=    0 NMatD0=    1 NMtDS0=    0 NMtDT0=    0
 Petite list used in FoFCou.
 Closed shell SCF:
 Using DIIS extrapolation, IDIIS=  1040.
 NGot=  1073741824 LenX=  1032042104 LenY=  1032013439
 Requested convergence on RMS density matrix=1.00D-08 within 128 cycles.
 Requested convergence on MAX density matrix=1.00D-06.
 Requested convergence on             energy=1.00D-06.
 No special actions if energy rises.

 Cycle   1  Pass 1  IDiag  1:
 E= -276.890563101820    
 DIIS: error= 7.23D-02 at cycle   1 NSaved=   1.
 NSaved= 1 IEnMin= 1 EnMin= -276.890563101820     IErMin= 1 ErrMin= 7.23D-02
 ErrMax= 7.23D-02  0.00D+00 EMaxC= 1.00D-01 BMatC= 3.96D-01 BMatP= 3.96D-01
 IDIUse=3 WtCom= 2.77D-01 WtEn= 7.23D-01
 Coeff-Com:  0.100D+01
 Coeff-En:   0.100D+01
 Coeff:      0.100D+01
 Gap=     0.598 Goal=   None    Shift=    0.000
 GapD=    0.598 DampG=2.000 DampE=0.500 DampFc=1.0000 IDamp=-1.
 RMSDP=1.78D-03 MaxDP=1.10D-01              OVMax= 1.21D-01

 Cycle   2  Pass 1  IDiag  1:
 E= -277.017135309499     Delta-E=       -0.126572207679 Rises=F Damp=F
 DIIS: error= 1.13D-02 at cycle   2 NSaved=   2.
 NSaved= 2 IEnMin= 2 EnMin= -277.017135309499     IErMin= 2 ErrMin= 1.13D-02
 ErrMax= 1.13D-02  0.00D+00 EMaxC= 1.00D-01 BMatC= 2.11D-02 BMatP= 3.96D-01
 IDIUse=3 WtCom= 8.87D-01 WtEn= 1.13D-01
 Coeff-Com:  0.990D-01 0.901D+00
 Coeff-En:   0.000D+00 0.100D+01
 Coeff:      0.879D-01 0.912D+00
 Gap=     0.589 Goal=   None    Shift=    0.000
 RMSDP=8.58D-04 MaxDP=4.64D-02 DE=-1.27D-01 OVMax= 3.99D-02

 Cycle   3  Pass 1  IDiag  1:
 E= -277.032965035915     Delta-E=       -0.015829726416 Rises=F Damp=F
 DIIS: error= 3.20D-03 at cycle   3 NSaved=   3.
 NSaved= 3 IEnMin= 3 EnMin= -277.032965035915     IErMin= 3 ErrMin= 3.20D-03
 ErrMax= 3.20D-03  0.00D+00 EMaxC= 1.00D-01 BMatC= 1.99D-03 BMatP= 2.11D-02
 IDIUse=3 WtCom= 9.68D-01 WtEn= 3.20D-02
 Coeff-Com: -0.202D-01 0.197D+00 0.823D+00
 Coeff-En:   0.000D+00 0.000D+00 0.100D+01
 Coeff:     -0.196D-01 0.191D+00 0.828D+00
 Gap=     0.560 Goal=   None    Shift=    0.000
 RMSDP=1.61D-04 MaxDP=8.36D-03 DE=-1.58D-02 OVMax= 1.02D-02

 Cycle   4  Pass 1  IDiag  1:
 E= -277.034549791519     Delta-E=       -0.001584755604 Rises=F Damp=F
 DIIS: error= 4.37D-04 at cycle   4 NSaved=   4.
 NSaved= 4 IEnMin= 4 EnMin= -277.034549791519     IErMin= 4 ErrMin= 4.37D-04
 ErrMax= 4.37D-04  0.00D+00 EMaxC= 1.00D-01 BMatC= 2.96D-05 BMatP= 1.99D-03
 IDIUse=3 WtCom= 9.96D-01 WtEn= 4.37D-03
 Coeff-Com: -0.119D-02-0.943D-02 0.231D-01 0.988D+00
 Coeff-En:   0.000D+00 0.000D+00 0.000D+00 0.100D+01
 Coeff:     -0.119D-02-0.938D-02 0.230D-01 0.988D+00
 Gap=     0.558 Goal=   None    Shift=    0.000
 RMSDP=3.58D-05 MaxDP=7.05D-04 DE=-1.58D-03 OVMax= 1.59D-03

 Cycle   5  Pass 1  IDiag  1:
 E= -277.034588334482     Delta-E=       -0.000038542963 Rises=F Damp=F
 DIIS: error= 2.98D-04 at cycle   5 NSaved=   5.
 NSaved= 5 IEnMin= 5 EnMin= -277.034588334482     IErMin= 5 ErrMin= 2.98D-04
 ErrMax= 2.98D-04  0.00D+00 EMaxC= 1.00D-01 BMatC= 7.03D-06 BMatP= 2.96D-05
 IDIUse=3 WtCom= 9.97D-01 WtEn= 2.98D-03
 Coeff-Com:  0.178D-02-0.269D-01-0.914D-01 0.269D+00 0.847D+00
 Coeff-En:   0.000D+00 0.000D+00 0.000D+00 0.000D+00 0.100D+01
 Coeff:      0.177D-02-0.268D-01-0.911D-01 0.268D+00 0.848D+00
 Gap=     0.559 Goal=   None    Shift=    0.000
 RMSDP=1.60D-05 MaxDP=5.23D-04 DE=-3.85D-05 OVMax= 7.53D-04

 Cycle   6  Pass 1  IDiag  1:
 E= -277.034595662870     Delta-E=       -0.000007328389 Rises=F Damp=F
 DIIS: error= 3.23D-05 at cycle   6 NSaved=   6.
 NSaved= 6 IEnMin= 6 EnMin= -277.034595662870     IErMin= 6 ErrMin= 3.23D-05
 ErrMax= 3.23D-05  0.00D+00 EMaxC= 1.00D-01 BMatC= 1.87D-07 BMatP= 7.03D-06
 IDIUse=1 WtCom= 1.00D+00 WtEn= 0.00D+00
 Coeff-Com:  0.820D-04 0.584D-03 0.143D-02-0.695D-01-0.237D-01 0.109D+01
 Coeff:      0.820D-04 0.584D-03 0.143D-02-0.695D-01-0.237D-01 0.109D+01
 Gap=     0.559 Goal=   None    Shift=    0.000
 RMSDP=4.26D-06 MaxDP=8.49D-05 DE=-7.33D-06 OVMax= 2.28D-04

 Cycle   7  Pass 1  IDiag  1:
 E= -277.034596038037     Delta-E=       -0.000000375167 Rises=F Damp=F
 DIIS: error= 8.83D-06 at cycle   7 NSaved=   7.
 NSaved= 7 IEnMin= 7 EnMin= -277.034596038037     IErMin= 7 ErrMin= 8.83D-06
 ErrMax= 8.83D-06  0.00D+00 EMaxC= 1.00D-01 BMatC= 9.17D-09 BMatP= 1.87D-07
 IDIUse=1 WtCom= 1.00D+00 WtEn= 0.00D+00
 Coeff-Com: -0.735D-04 0.105D-02 0.387D-02-0.669D-02-0.272D-01-0.132D+00
 Coeff-Com:  0.116D+01
 Coeff:     -0.735D-04 0.105D-02 0.387D-02-0.669D-02-0.272D-01-0.132D+00
 Coeff:      0.116D+01
 Gap=     0.559 Goal=   None    Shift=    0.000
 RMSDP=1.21D-06 MaxDP=2.37D-05 DE=-3.75D-07 OVMax= 5.74D-05

 Cycle   8  Pass 1  IDiag  1:
 E= -277.034596057633     Delta-E=       -0.000000019596 Rises=F Damp=F
 DIIS: error= 1.77D-06 at cycle   8 NSaved=   8.
 NSaved= 8 IEnMin= 8 EnMin= -277.034596057633     IErMin= 8 ErrMin= 1.77D-06
 ErrMax= 1.77D-06  0.00D+00 EMaxC= 1.00D-01 BMatC= 5.83D-10 BMatP= 9.17D-09
 IDIUse=1 WtCom= 1.00D+00 WtEn= 0.00D+00
 Coeff-Com: -0.745D-05 0.103D-05-0.158D-04 0.320D-02 0.121D-02-0.534D-01
 Coeff-Com: -0.220D-01 0.107D+01
 Coeff:     -0.745D-05 0.103D-05-0.158D-04 0.320D-02 0.121D-02-0.534D-01
 Coeff:     -0.220D-01 0.107D+01
 Gap=     0.559 Goal=   None    Shift=    0.000
 RMSDP=2.53D-07 MaxDP=3.66D-06 DE=-1.96D-08 OVMax= 1.26D-05

 Cycle   9  Pass 1  IDiag  1:
 E= -277.034596058811     Delta-E=       -0.000000001178 Rises=F Damp=F
 DIIS: error= 8.79D-07 at cycle   9 NSaved=   9.
 NSaved= 9 IEnMin= 9 EnMin= -277.034596058811     IErMin= 9 ErrMin= 8.79D-07
 ErrMax= 8.79D-07  0.00D+00 EMaxC= 1.00D-01 BMatC= 5.00D-11 BMatP= 5.83D-10
 IDIUse=1 WtCom= 1.00D+00 WtEn= 0.00D+00
 Coeff-Com:  0.599D-05-0.860D-04-0.336D-03 0.698D-03 0.248D-02 0.901D-02
 Coeff-Com: -0.924D-01-0.135D-02 0.108D+01
 Coeff:      0.599D-05-0.860D-04-0.336D-03 0.698D-03 0.248D-02 0.901D-02
 Coeff:     -0.924D-01-0.135D-02 0.108D+01
 Gap=     0.559 Goal=   None    Shift=    0.000
 RMSDP=6.96D-08 MaxDP=1.56D-06 DE=-1.18D-09 OVMax= 3.85D-06

 Cycle  10  Pass 1  IDiag  1:
 E= -277.034596058914     Delta-E=       -0.000000000103 Rises=F Damp=F
 DIIS: error= 1.70D-07 at cycle  10 NSaved=  10.
 NSaved=10 IEnMin=10 EnMin= -277.034596058914     IErMin=10 ErrMin= 1.70D-07
 ErrMax= 1.70D-07  0.00D+00 EMaxC= 1.00D-01 BMatC= 3.00D-12 BMatP= 5.00D-11
 IDIUse=1 WtCom= 1.00D+00 WtEn= 0.00D+00
 Coeff-Com:  0.212D-07 0.628D-05 0.224D-04-0.263D-03-0.287D-03 0.335D-02
 Coeff-Com:  0.734D-02-0.800D-01-0.335D-01 0.110D+01
 Coeff:      0.212D-07 0.628D-05 0.224D-04-0.263D-03-0.287D-03 0.335D-02
 Coeff:      0.734D-02-0.800D-01-0.335D-01 0.110D+01
 Gap=     0.559 Goal=   None    Shift=    0.000
 RMSDP=1.73D-08 MaxDP=3.77D-07 DE=-1.03D-10 OVMax= 9.37D-07

 Cycle  11  Pass 1  IDiag  1:
 E= -277.034596058919     Delta-E=       -0.000000000005 Rises=F Damp=F
 DIIS: error= 3.58D-08 at cycle  11 NSaved=  11.
 NSaved=11 IEnMin=11 EnMin= -277.034596058919     IErMin=11 ErrMin= 3.58D-08
 ErrMax= 3.58D-08  0.00D+00 EMaxC= 1.00D-01 BMatC= 1.19D-13 BMatP= 3.00D-12
 IDIUse=1 WtCom= 1.00D+00 WtEn= 0.00D+00
 Coeff-Com: -0.275D-06 0.358D-05 0.135D-04 0.379D-05-0.890D-04-0.110D-02
 Coeff-Com:  0.429D-02 0.108D-01-0.561D-01-0.124D+00 0.117D+01
 Coeff:     -0.275D-06 0.358D-05 0.135D-04 0.379D-05-0.890D-04-0.110D-02
 Coeff:      0.429D-02 0.108D-01-0.561D-01-0.124D+00 0.117D+01
 Gap=     0.559 Goal=   None    Shift=    0.000
 RMSDP=4.91D-09 MaxDP=1.16D-07 DE=-5.00D-12 OVMax= 2.12D-07

 SCF Done:  E(RHF) =  -277.034596059     A.U. after   11 cycles
            NFock= 11  Conv=0.49D-08     -V/T= 2.0010
 KE= 2.767450558883D+02 PE=-9.233812594157D+02 EE= 2.370780401818D+02
 Leave Link  502 at Fri Sep  6 14:12:03 2024, MaxMem=  1073741824 cpu:               7.1 elap:               1.1
 (Enter /Users/asuyarger/Applications/G16/g16/l601.exe)
 Copying SCF densities to generalized density rwf, IOpCl= 0 IROHF=0.

 **********************************************************************

            Population analysis using the SCF density.

 **********************************************************************

 Orbital symmetries:
       Occupied  (A") (A') (A') (A') (A') (A") (A') (A') (A') (A")
                 (A') (A") (A') (A") (A") (A') (A')
       Virtual   (A') (A') (A") (A') (A') (A") (A') (A') (A") (A')
                 (A') (A') (A") (A') (A') (A") (A") (A') (A') (A')
                 (A') (A") (A") (A") (A') (A') (A') (A') (A") (A')
                 (A") (A') (A') (A") (A') (A") (A') (A") (A') (A')
                 (A') (A") (A') (A") (A') (A') (A') (A") (A') (A')
                 (A") (A') (A') (A") (A') (A") (A') (A') (A") (A')
                 (A') (A') (A") (A") (A') (A') (A") (A") (A") (A')
                 (A') (A") (A') (A") (A") (A') (A") (A') (A') (A")
                 (A') (A') (A") (A") (A') (A') (A') (A") (A') (A")
                 (A') (A") (A') (A') (A') (A') (A") (A') (A") (A')
                 (A") (A') (A") (A') (A') (A') (A") (A') (A') (A")
                 (A') (A") (A') (A") (A') (A') (A") (A") (A') (A")
                 (A') (A") (A') (A") (A') (A') (A') (A") (A') (A")
                 (A") (A') (A') (A") (A') (A") (A') (A') (A") (A')
                 (A') (A") (A')
 The electronic state is 1-A'.
 Alpha  occ. eigenvalues --  -26.30102 -26.30100 -11.41118 -11.24754  -1.65912
 Alpha  occ. eigenvalues --   -1.58553  -1.04696  -0.89432  -0.77570  -0.74823
 Alpha  occ. eigenvalues --   -0.73079  -0.65614  -0.62072  -0.61454  -0.56778
 Alpha  occ. eigenvalues --   -0.55873  -0.52074
 Alpha virt. eigenvalues --    0.03817   0.05464   0.06781   0.07895   0.12231
 Alpha virt. eigenvalues --    0.12546   0.12982   0.14412   0.15763   0.17236
 Alpha virt. eigenvalues --    0.18168   0.19287   0.26457   0.26614   0.28664
 Alpha virt. eigenvalues --    0.31245   0.34227   0.34671   0.36265   0.38300
 Alpha virt. eigenvalues --    0.41009   0.41386   0.44278   0.44331   0.44363
 Alpha virt. eigenvalues --    0.44981   0.48724   0.52287   0.54267   0.54677
 Alpha virt. eigenvalues --    0.56537   0.60310   0.62359   0.63547   0.65941
 Alpha virt. eigenvalues --    0.66884   0.67939   0.70367   0.75109   0.76222
 Alpha virt. eigenvalues --    0.88655   0.88868   0.89438   0.92211   0.94553
 Alpha virt. eigenvalues --    0.97526   0.99860   1.00114   1.03134   1.15276
 Alpha virt. eigenvalues --    1.15464   1.18693   1.21603   1.25770   1.27380
 Alpha virt. eigenvalues --    1.45506   1.46114   1.46932   1.53240   1.58371
 Alpha virt. eigenvalues --    1.59013   1.63088   1.65675   1.69948   1.73830
 Alpha virt. eigenvalues --    1.78755   1.79528   2.02379   2.04190   2.08362
 Alpha virt. eigenvalues --    2.16233   2.22850   2.27577   2.30019   2.34115
 Alpha virt. eigenvalues --    2.34915   2.37315   2.42105   2.46512   2.54754
 Alpha virt. eigenvalues --    2.57869   2.60826   2.61860   2.71519   2.73639
 Alpha virt. eigenvalues --    2.79874   2.92486   2.96091   3.07169   3.09555
 Alpha virt. eigenvalues --    3.14933   3.26758   3.27882   3.29201   3.43585
 Alpha virt. eigenvalues --    3.62605   3.72410   3.78955   3.83103   3.84242
 Alpha virt. eigenvalues --    3.86028   3.86713   3.90169   3.90787   3.92866
 Alpha virt. eigenvalues --    3.98903   4.52332   4.52550   4.53347   4.63327
 Alpha virt. eigenvalues --    4.87218   6.98560   6.98610   7.03515   7.06080
 Alpha virt. eigenvalues --    7.25020   7.32707   8.70437   8.72845   8.73086
 Alpha virt. eigenvalues --    8.77956   8.79928   8.81494   8.87269   8.90246
 Alpha virt. eigenvalues --    8.96480   9.06264   9.11279   9.12054   9.71673
 Alpha virt. eigenvalues --    9.74251   9.79780   9.82939   9.92301  10.04554
 Alpha virt. eigenvalues --   10.06601  10.17452  10.31285  10.40135  25.01816
 Alpha virt. eigenvalues --   25.19986  68.84905  68.86391
     Molecular Orbital Coefficients:
                           1         2         3         4         5
                           O         O         O         O         O
     Eigenvalues --   -26.30102 -26.30100 -11.41118 -11.24754  -1.65912
   1 1   C  1S          0.00000  -0.00000   0.56370  -0.00119  -0.04007
   2        2S          0.00000  -0.00005   0.46663  -0.00107  -0.06520
   3        2PX         0.00000   0.00000  -0.00005  -0.00011  -0.00010
   4        2PY         0.00000  -0.00000  -0.00184   0.00008  -0.03656
   5        2PZ         0.00000   0.00000   0.00000   0.00000   0.00000
   6        3S          0.00000   0.00011   0.00332   0.00036   0.17254
   7        3PX         0.00000  -0.00004   0.00006  -0.00039  -0.00419
   8        3PY         0.00000  -0.00030   0.00171   0.00026  -0.05255
   9        3PZ        -0.00039   0.00000   0.00000   0.00000   0.00000
  10        4S          0.00000   0.00057  -0.00153   0.00157  -0.15703
  11        4PX         0.00000  -0.00020   0.00023  -0.00035   0.00656
  12        4PY         0.00000  -0.00068   0.00145   0.00001   0.05265
  13        4PZ        -0.00067   0.00000   0.00000   0.00000   0.00000
  14        5S          0.00000  -0.00187  -0.00143   0.00061   0.09658
  15        5PX         0.00000   0.00027   0.00015  -0.00005  -0.01865
  16        5PY         0.00000  -0.00015  -0.00026   0.00004   0.01284
  17        5PZ         0.00014   0.00000   0.00000   0.00000   0.00000
  18        6D 0        0.00000   0.00004  -0.00010  -0.00008   0.00766
  19        6D+1       -0.00001   0.00000   0.00000   0.00000   0.00000
  20        6D-1        0.00009   0.00000   0.00000   0.00000   0.00000
  21        6D+2        0.00000  -0.00003   0.00006   0.00006  -0.00723
  22        6D-2        0.00000  -0.00000  -0.00000  -0.00012  -0.00033
  23        7D 0        0.00000   0.00017  -0.00065   0.00001   0.00167
  24        7D+1        0.00004   0.00000   0.00000   0.00000   0.00000
  25        7D-1        0.00031   0.00000   0.00000   0.00000   0.00000
  26        7D+2        0.00000  -0.00015   0.00066  -0.00006  -0.00571
  27        7D-2        0.00000  -0.00004   0.00011   0.00002  -0.00093
  28 2   H  1S          0.00000   0.00001   0.00034  -0.00000   0.00934
  29        2S          0.00000   0.00019  -0.00079  -0.00008   0.03484
  30        3S          0.00000   0.00034  -0.00007   0.00017   0.01608
  31        4S          0.00000   0.00015   0.00020  -0.00005  -0.00852
  32        5PX         0.00000   0.00000  -0.00009  -0.00000  -0.00004
  33        5PY         0.00000   0.00000  -0.00005   0.00000  -0.00032
  34        5PZ         0.00000   0.00000   0.00000   0.00000   0.00000
  35        6PX         0.00000  -0.00004   0.00014   0.00002  -0.00515
  36        6PY         0.00000  -0.00002   0.00005  -0.00003  -0.00299
  37        6PZ         0.00000   0.00000   0.00000   0.00000   0.00000
  38        7PX         0.00000  -0.00010   0.00023  -0.00006  -0.00716
  39        7PY         0.00000   0.00006   0.00017   0.00004  -0.01928
  40        7PZ         0.00012   0.00000   0.00000   0.00000   0.00000
  41 3   C  1S          0.00000   0.00000   0.00109   0.56333  -0.00463
  42        2S          0.00000  -0.00000   0.00085   0.46650  -0.00742
  43        2PX         0.00000   0.00000   0.00011   0.00018   0.00334
  44        2PY         0.00000   0.00001  -0.00009  -0.00003  -0.00354
  45        2PZ         0.00000   0.00000   0.00000   0.00000   0.00000
  46        3S          0.00000   0.00005   0.00027   0.00486   0.01473
  47        3PX         0.00000  -0.00001   0.00021  -0.00013   0.01212
  48        3PY         0.00000  -0.00003  -0.00001   0.00001  -0.01224
  49        3PZ        -0.00003   0.00000   0.00000   0.00000   0.00000
  50        4S          0.00000   0.00007  -0.00121  -0.00345   0.04358
  51        4PX         0.00000  -0.00002  -0.00055  -0.00073   0.01527
  52        4PY         0.00000   0.00007   0.00084   0.00060  -0.03703
  53        4PZ         0.00003   0.00000   0.00000   0.00000   0.00000
  54        5S          0.00000   0.00106  -0.00009  -0.00271  -0.05483
  55        5PX         0.00000   0.00032   0.00026   0.00004  -0.02310
  56        5PY         0.00000  -0.00018  -0.00004   0.00003   0.01015
  57        5PZ         0.00006   0.00000   0.00000   0.00000   0.00000
  58        6D 0        0.00000  -0.00000  -0.00006   0.00000  -0.00058
  59        6D+1       -0.00000   0.00000   0.00000   0.00000   0.00000
  60        6D-1        0.00000   0.00000   0.00000   0.00000   0.00000
  61        6D+2        0.00000   0.00000   0.00004   0.00000   0.00006
  62        6D-2        0.00000  -0.00001  -0.00009  -0.00000  -0.00148
  63        7D 0        0.00000  -0.00003   0.00025   0.00012  -0.00656
  64        7D+1        0.00002   0.00000   0.00000   0.00000   0.00000
  65        7D-1       -0.00012   0.00000   0.00000   0.00000   0.00000
  66        7D+2        0.00000   0.00003  -0.00015  -0.00009   0.00093
  67        7D-2        0.00000   0.00004   0.00001   0.00020  -0.00610
  68 4   H  1S          0.00001   0.00001  -0.00002   0.00037   0.00106
  69        2S          0.00008   0.00001  -0.00014  -0.00002   0.00660
  70        3S          0.00008   0.00004   0.00010   0.00112  -0.00175
  71        4S         -0.00016   0.00000   0.00015   0.00029  -0.00099
  72        5PX         0.00000   0.00000  -0.00000   0.00000  -0.00004
  73        5PY        -0.00000  -0.00000  -0.00000  -0.00007   0.00015
  74        5PZ         0.00000  -0.00000   0.00000  -0.00009  -0.00000
  75        6PX        -0.00001  -0.00001   0.00000   0.00000   0.00045
  76        6PY         0.00000   0.00000   0.00002   0.00008  -0.00164
  77        6PZ        -0.00002  -0.00000  -0.00001   0.00010  -0.00073
  78        7PX         0.00004   0.00001   0.00013   0.00016  -0.00178
  79        7PY        -0.00005  -0.00002  -0.00011  -0.00022   0.00373
  80        7PZ        -0.00003   0.00000   0.00005  -0.00012  -0.00158
  81 5   H  1S         -0.00001   0.00001  -0.00002   0.00037   0.00106
  82        2S         -0.00008   0.00001  -0.00014  -0.00002   0.00660
  83        3S         -0.00008   0.00004   0.00010   0.00112  -0.00175
  84        4S          0.00016   0.00000   0.00015   0.00029  -0.00099
  85        5PX        -0.00000   0.00000  -0.00000   0.00000  -0.00004
  86        5PY         0.00000  -0.00000  -0.00000  -0.00007   0.00015
  87        5PZ         0.00000   0.00000  -0.00000   0.00009   0.00000
  88        6PX         0.00001  -0.00001   0.00000   0.00000   0.00045
  89        6PY        -0.00000   0.00000   0.00002   0.00008  -0.00164
  90        6PZ        -0.00002   0.00000   0.00001  -0.00010   0.00073
  91        7PX        -0.00004   0.00001   0.00013   0.00016  -0.00178
  92        7PY         0.00005  -0.00002  -0.00011  -0.00022   0.00373
  93        7PZ        -0.00003  -0.00000  -0.00005   0.00012   0.00158
  94 6   H  1S          0.00000   0.00000  -0.00001   0.00036   0.00153
  95        2S          0.00000  -0.00006   0.00035  -0.00003  -0.00295
  96        3S          0.00000  -0.00011   0.00060   0.00115  -0.00127
  97        4S          0.00000   0.00016   0.00018   0.00034  -0.01277
  98        5PX         0.00000   0.00000  -0.00000   0.00009  -0.00002
  99        5PY         0.00000   0.00000  -0.00001   0.00006  -0.00002
 100        5PZ         0.00000   0.00000   0.00000   0.00000   0.00000
 101        6PX         0.00000  -0.00001   0.00003  -0.00011   0.00061
 102        6PY         0.00000  -0.00001   0.00006  -0.00007   0.00048
 103        6PZ        -0.00001   0.00000   0.00000   0.00000   0.00000
 104        7PX         0.00000  -0.00008   0.00030   0.00027   0.00345
 105        7PY         0.00000   0.00000  -0.00007  -0.00003  -0.00015
 106        7PZ        -0.00000   0.00000   0.00000   0.00000   0.00000
 107 7   F  1S          0.38726   0.38726  -0.00007   0.00000  -0.08120
 108        2S          0.33480   0.33480  -0.00011   0.00000  -0.13593
 109        2PX        -0.00000   0.00000  -0.00000   0.00000  -0.00025
 110        2PY         0.00051   0.00051   0.00009  -0.00000   0.01277
 111        2PZ         0.00056   0.00055   0.00010  -0.00000   0.02075
 112        3S          0.00448   0.00447   0.00014   0.00000   0.39286
 113        3PX        -0.00000  -0.00001   0.00002   0.00002  -0.00015
 114        3PY        -0.00018  -0.00018   0.00034  -0.00002   0.02408
 115        3PZ        -0.00018  -0.00019   0.00039  -0.00000   0.03716
 116        4S         -0.00106  -0.00104   0.00125  -0.00017   0.35248
 117        4PX         0.00002   0.00002  -0.00006   0.00000  -0.00168
 118        4PY        -0.00015  -0.00003   0.00040   0.00000   0.03007
 119        4PZ        -0.00012  -0.00015   0.00067  -0.00006   0.04257
 120        5S          0.00040   0.00038   0.00104   0.00001   0.00242
 121        5PX        -0.00002  -0.00001  -0.00005  -0.00005   0.00225
 122        5PY        -0.00000  -0.00000   0.00021  -0.00000  -0.00457
 123        5PZ         0.00008  -0.00006   0.00016  -0.00004   0.00392
 124        6D 0       -0.00000   0.00000   0.00001   0.00000   0.00095
 125        6D+1       -0.00000  -0.00000   0.00000  -0.00000   0.00001
 126        6D-1       -0.00001  -0.00001   0.00006  -0.00000   0.00098
 127        6D+2        0.00001   0.00001  -0.00002  -0.00000  -0.00039
 128        6D-2       -0.00000  -0.00000   0.00000   0.00000  -0.00002
 129        7D 0       -0.00003  -0.00006   0.00017  -0.00001   0.00434
 130        7D+1        0.00000   0.00000  -0.00000   0.00002  -0.00020
 131        7D-1       -0.00012  -0.00009   0.00018   0.00001   0.01010
 132        7D+2        0.00005   0.00004  -0.00009   0.00001  -0.00370
 133        7D-2        0.00000   0.00000  -0.00002  -0.00001   0.00000
 134 8   F  1S         -0.38726   0.38726  -0.00007   0.00000  -0.08120
 135        2S         -0.33480   0.33480  -0.00011   0.00000  -0.13593
 136        2PX         0.00000   0.00000  -0.00000   0.00000  -0.00025
 137        2PY        -0.00051   0.00051   0.00009  -0.00000   0.01277
 138        2PZ         0.00056  -0.00055  -0.00010   0.00000  -0.02075
 139        3S         -0.00448   0.00447   0.00014   0.00000   0.39286
 140        3PX         0.00000  -0.00001   0.00002   0.00002  -0.00015
 141        3PY         0.00018  -0.00018   0.00034  -0.00002   0.02408
 142        3PZ        -0.00018   0.00019  -0.00039   0.00000  -0.03716
 143        4S          0.00106  -0.00104   0.00125  -0.00017   0.35248
 144        4PX        -0.00002   0.00002  -0.00006   0.00000  -0.00168
 145        4PY         0.00015  -0.00003   0.00040   0.00000   0.03007
 146        4PZ        -0.00012   0.00015  -0.00067   0.00006  -0.04257
 147        5S         -0.00040   0.00038   0.00104   0.00001   0.00242
 148        5PX         0.00002  -0.00001  -0.00005  -0.00005   0.00225
 149        5PY         0.00000  -0.00000   0.00021  -0.00000  -0.00457
 150        5PZ         0.00008   0.00006  -0.00016   0.00004  -0.00392
 151        6D 0        0.00000   0.00000   0.00001   0.00000   0.00095
 152        6D+1       -0.00000   0.00000  -0.00000   0.00000  -0.00001
 153        6D-1       -0.00001   0.00001  -0.00006   0.00000  -0.00098
 154        6D+2       -0.00001   0.00001  -0.00002  -0.00000  -0.00039
 155        6D-2        0.00000  -0.00000   0.00000   0.00000  -0.00002
 156        7D 0        0.00003  -0.00006   0.00017  -0.00001   0.00434
 157        7D+1        0.00000  -0.00000   0.00000  -0.00002   0.00020
 158        7D-1       -0.00012   0.00009  -0.00018  -0.00001  -0.01010
 159        7D+2       -0.00005   0.00004  -0.00009   0.00001  -0.00370
 160        7D-2       -0.00000   0.00000  -0.00002  -0.00001   0.00000
                           6         7         8         9        10
                           O         O         O         O         O
     Eigenvalues --    -1.58553  -1.04696  -0.89432  -0.77570  -0.74823
   1 1   C  1S          0.00000  -0.06544  -0.06075   0.00600   0.00000
   2        2S          0.00000  -0.10949  -0.10291   0.00939   0.00000
   3        2PX         0.00000  -0.03416   0.06198  -0.09208   0.00000
   4        2PY         0.00000   0.04033  -0.02930  -0.09389   0.00000
   5        2PZ        -0.05223   0.00000   0.00000   0.00000  -0.13050
   6        3S          0.00000   0.29814   0.28992  -0.02061   0.00000
   7        3PX         0.00000  -0.06397   0.09463  -0.15180   0.00000
   8        3PY         0.00000   0.05929  -0.05840  -0.15804   0.00000
   9        3PZ        -0.06556   0.00000   0.00000   0.00000  -0.21573
  10        4S          0.00000   0.11711   0.06905  -0.07189   0.00000
  11        4PX         0.00000  -0.04205   0.02103  -0.06445   0.00000
  12        4PY         0.00000   0.02097  -0.00221  -0.05225   0.00000
  13        4PZ         0.05643   0.00000   0.00000   0.00000  -0.06951
  14        5S          0.00000  -0.07640  -0.12446  -0.08625   0.00000
  15        5PX         0.00000   0.00908   0.03477  -0.04255   0.00000
  16        5PY         0.00000   0.00050  -0.00700  -0.01971   0.00000
  17        5PZ        -0.00643   0.00000   0.00000   0.00000   0.00962
  18        6D 0        0.00000  -0.00465   0.00294   0.00181   0.00000
  19        6D+1        0.00006   0.00000   0.00000   0.00000   0.00138
  20        6D-1        0.01885   0.00000   0.00000   0.00000   0.02337
  21        6D+2        0.00000   0.00439  -0.00398  -0.01164   0.00000
  22        6D-2        0.00000  -0.00485   0.00434  -0.00022   0.00000
  23        7D 0        0.00000  -0.00486   0.00591  -0.00216   0.00000
  24        7D+1        0.00161   0.00000   0.00000   0.00000   0.00790
  25        7D-1        0.00218   0.00000   0.00000   0.00000   0.02507
  26        7D+2        0.00000   0.00435  -0.00992  -0.01911   0.00000
  27        7D-2        0.00000  -0.01326   0.00277   0.00220   0.00000
  28 2   H  1S          0.00000   0.04328   0.07216  -0.09210   0.00000
  29        2S          0.00000   0.07609   0.12608  -0.12418   0.00000
  30        3S          0.00000   0.03038   0.06099  -0.00159   0.00000
  31        4S          0.00000   0.00869  -0.00490   0.05198   0.00000
  32        5PX         0.00000  -0.00112  -0.00171   0.00289   0.00000
  33        5PY         0.00000  -0.00043  -0.00151   0.00193   0.00000
  34        5PZ        -0.00052   0.00000   0.00000   0.00000  -0.00105
  35        6PX         0.00000  -0.01129  -0.01221   0.00658   0.00000
  36        6PY         0.00000  -0.00405  -0.00786   0.00066   0.00000
  37        6PZ         0.00074   0.00000   0.00000   0.00000  -0.00213
  38        7PX         0.00000  -0.00891  -0.01841   0.00558   0.00000
  39        7PY         0.00000  -0.01017  -0.01727  -0.00175   0.00000
  40        7PZ        -0.01692   0.00000   0.00000   0.00000  -0.01156
  41 3   C  1S          0.00000  -0.08262   0.05515   0.00158   0.00000
  42        2S          0.00000  -0.13657   0.09162   0.00264   0.00000
  43        2PX         0.00000   0.02218   0.03257  -0.01570   0.00000
  44        2PY         0.00000  -0.01257  -0.01830  -0.03312   0.00000
  45        2PZ        -0.00210   0.00000   0.00000   0.00000  -0.03795
  46        3S          0.00000   0.34478  -0.23300  -0.00594   0.00000
  47        3PX         0.00000   0.04501   0.05121  -0.02187   0.00000
  48        3PY         0.00000  -0.02842  -0.03145  -0.05320   0.00000
  49        3PZ        -0.00514   0.00000   0.00000   0.00000  -0.06321
  50        4S          0.00000   0.12050  -0.09610   0.02149   0.00000
  51        4PX         0.00000   0.03907   0.01399  -0.01284   0.00000
  52        4PY         0.00000  -0.02798  -0.02039  -0.02638   0.00000
  53        4PZ        -0.02752   0.00000   0.00000   0.00000  -0.03935
  54        5S          0.00000   0.04273   0.09253   0.05040   0.00000
  55        5PX         0.00000   0.00515   0.01893   0.01059   0.00000
  56        5PY         0.00000  -0.01749  -0.01242   0.01443   0.00000
  57        5PZ        -0.00167   0.00000   0.00000   0.00000   0.00773
  58        6D 0        0.00000  -0.00274  -0.00236  -0.00247   0.00000
  59        6D+1       -0.00059   0.00000   0.00000   0.00000  -0.00262
  60        6D-1        0.00091   0.00000   0.00000   0.00000  -0.00046
  61        6D+2        0.00000   0.00191   0.00181  -0.00170   0.00000
  62        6D-2        0.00000  -0.00486  -0.00404  -0.00014   0.00000
  63        7D 0        0.00000  -0.00869  -0.00711  -0.00189   0.00000
  64        7D+1       -0.00067   0.00000   0.00000   0.00000  -0.00436
  65        7D-1       -0.00524   0.00000   0.00000   0.00000  -0.01052
  66        7D+2        0.00000   0.00695   0.00275  -0.00771   0.00000
  67        7D-2        0.00000  -0.00957  -0.00548  -0.00474   0.00000
  68 4   H  1S         -0.00060   0.05600  -0.05489  -0.01570  -0.02224
  69        2S          0.00972   0.09108  -0.07839  -0.02562  -0.02374
  70        3S         -0.00266   0.01949  -0.01723  -0.02111  -0.02048
  71        4S          0.00730   0.00573  -0.00182  -0.01632  -0.01216
  72        5PX        -0.00005   0.00019   0.00018  -0.00019  -0.00011
  73        5PY         0.00003  -0.00095   0.00097   0.00018   0.00051
  74        5PZ         0.00009  -0.00126   0.00142   0.00044   0.00055
  75        6PX         0.00040   0.00157   0.00038  -0.00083  -0.00019
  76        6PY        -0.00040  -0.00851   0.00489   0.00016   0.00190
  77        6PZ        -0.00088  -0.01051   0.00797   0.00214  -0.00021
  78        7PX        -0.00534  -0.00409   0.00040   0.00240  -0.00318
  79        7PY         0.00256  -0.00481   0.00502   0.00388   0.00516
  80        7PZ         0.00107  -0.01116   0.00731   0.00501   0.00307
  81 5   H  1S          0.00060   0.05600  -0.05489  -0.01570   0.02224
  82        2S         -0.00972   0.09108  -0.07839  -0.02562   0.02374
  83        3S          0.00266   0.01949  -0.01723  -0.02111   0.02048
  84        4S         -0.00730   0.00573  -0.00182  -0.01632   0.01216
  85        5PX         0.00005   0.00019   0.00018  -0.00019   0.00011
  86        5PY        -0.00003  -0.00095   0.00097   0.00018  -0.00051
  87        5PZ         0.00009   0.00126  -0.00142  -0.00044   0.00055
  88        6PX        -0.00040   0.00157   0.00038  -0.00083   0.00019
  89        6PY         0.00040  -0.00851   0.00489   0.00016  -0.00190
  90        6PZ        -0.00088   0.01051  -0.00797  -0.00214  -0.00021
  91        7PX         0.00534  -0.00409   0.00040   0.00240   0.00318
  92        7PY        -0.00256  -0.00481   0.00502   0.00388  -0.00516
  93        7PZ         0.00107   0.01116  -0.00731  -0.00501   0.00307
  94 6   H  1S          0.00000   0.05329  -0.05770   0.02076   0.00000
  95        2S          0.00000   0.08367  -0.09045   0.03394   0.00000
  96        3S          0.00000   0.00847  -0.02051   0.00952   0.00000
  97        4S          0.00000  -0.00501   0.00719   0.00185   0.00000
  98        5PX         0.00000   0.00131  -0.00131   0.00052   0.00000
  99        5PY         0.00000   0.00079  -0.00115   0.00011   0.00000
 100        5PZ         0.00011   0.00000   0.00000   0.00000  -0.00004
 101        6PX         0.00000   0.01139  -0.00885   0.00336   0.00000
 102        6PY         0.00000   0.00577  -0.00621   0.00096   0.00000
 103        6PZ        -0.00080   0.00000   0.00000   0.00000  -0.00297
 104        7PX         0.00000   0.00418  -0.00755   0.00730   0.00000
 105        7PY         0.00000   0.00800  -0.00748   0.00193   0.00000
 106        7PZ         0.00334   0.00000   0.00000   0.00000   0.00172
 107 7   F  1S         -0.08737   0.02289   0.02335   0.00834   0.01710
 108        2S         -0.14653   0.03881   0.03969   0.01417   0.02910
 109        2PX        -0.00021  -0.01123   0.03301  -0.10368  -0.00843
 110        2PY         0.01186   0.04098   0.05893  -0.03005   0.16204
 111        2PZ         0.00856   0.03297   0.09274   0.11857   0.08017
 112        3S          0.42710  -0.11976  -0.12512  -0.04528  -0.09476
 113        3PX        -0.00017  -0.01750   0.05021  -0.15774  -0.01271
 114        3PY         0.02293   0.06295   0.09115  -0.04532   0.25020
 115        3PZ         0.01851   0.05056   0.14308   0.18179   0.12548
 116        4S          0.37260  -0.11249  -0.12247  -0.04785  -0.10733
 117        4PX        -0.00059  -0.01096   0.04072  -0.13379  -0.00946
 118        4PY         0.02885   0.04457   0.07058  -0.03902   0.20027
 119        4PZ         0.02590   0.03581   0.10928   0.14505   0.09334
 120        5S         -0.02057  -0.01130  -0.00296  -0.00321  -0.04070
 121        5PX         0.00096   0.00568  -0.00547   0.00688  -0.00030
 122        5PY        -0.00209  -0.01040  -0.00627  -0.00100   0.00101
 123        5PZ        -0.01359  -0.00496  -0.00249   0.00524  -0.00416
 124        6D 0       -0.00005   0.00026   0.00162   0.00227   0.00045
 125        6D+1        0.00000  -0.00027   0.00059  -0.00126  -0.00008
 126        6D-1        0.00084   0.00142   0.00250   0.00120   0.00365
 127        6D+2       -0.00035  -0.00069  -0.00097   0.00006  -0.00195
 128        6D-2       -0.00001  -0.00034   0.00054  -0.00101  -0.00012
 129        7D 0        0.00396   0.00101   0.00521   0.00896   0.00047
 130        7D+1       -0.00006  -0.00131   0.00296  -0.00786  -0.00020
 131        7D-1        0.00883   0.00609   0.01127   0.00450   0.01461
 132        7D+2       -0.00406  -0.00316  -0.00395   0.00208  -0.01040
 133        7D-2       -0.00003  -0.00082   0.00271  -0.00640  -0.00021
 134 8   F  1S          0.08737   0.02289   0.02335   0.00834  -0.01710
 135        2S          0.14653   0.03881   0.03969   0.01417  -0.02910
 136        2PX         0.00021  -0.01123   0.03301  -0.10368   0.00843
 137        2PY        -0.01186   0.04098   0.05893  -0.03005  -0.16204
 138        2PZ         0.00856  -0.03297  -0.09274  -0.11857   0.08017
 139        3S         -0.42710  -0.11976  -0.12512  -0.04528   0.09476
 140        3PX         0.00017  -0.01750   0.05021  -0.15774   0.01271
 141        3PY        -0.02293   0.06295   0.09115  -0.04532  -0.25020
 142        3PZ         0.01851  -0.05056  -0.14308  -0.18179   0.12548
 143        4S         -0.37260  -0.11249  -0.12247  -0.04785   0.10733
 144        4PX         0.00059  -0.01096   0.04072  -0.13379   0.00946
 145        4PY        -0.02885   0.04457   0.07058  -0.03902  -0.20027
 146        4PZ         0.02590  -0.03581  -0.10928  -0.14505   0.09334
 147        5S          0.02057  -0.01130  -0.00296  -0.00321   0.04070
 148        5PX        -0.00096   0.00568  -0.00547   0.00688   0.00030
 149        5PY         0.00209  -0.01040  -0.00627  -0.00100  -0.00101
 150        5PZ        -0.01359   0.00496   0.00249  -0.00524  -0.00416
 151        6D 0        0.00005   0.00026   0.00162   0.00227  -0.00045
 152        6D+1        0.00000   0.00027  -0.00059   0.00126  -0.00008
 153        6D-1        0.00084  -0.00142  -0.00250  -0.00120   0.00365
 154        6D+2        0.00035  -0.00069  -0.00097   0.00006   0.00195
 155        6D-2        0.00001  -0.00034   0.00054  -0.00101   0.00012
 156        7D 0       -0.00396   0.00101   0.00521   0.00896  -0.00047
 157        7D+1       -0.00006   0.00131  -0.00296   0.00786  -0.00020
 158        7D-1        0.00883  -0.00609  -0.01127  -0.00450   0.01461
 159        7D+2        0.00406  -0.00316  -0.00395   0.00208   0.01040
 160        7D-2        0.00003  -0.00082   0.00271  -0.00640   0.00021
                          11        12        13        14        15
                           O         O         O         O         O
     Eigenvalues --    -0.73079  -0.65614  -0.62072  -0.61454  -0.56778
   1 1   C  1S          0.01708   0.00000   0.01900   0.00000   0.00000
   2        2S          0.02864   0.00000   0.03160   0.00000   0.00000
   3        2PX         0.06764   0.00000  -0.00332   0.00000   0.00000
   4        2PY        -0.05685   0.00000  -0.10323   0.00000   0.00000
   5        2PZ         0.00000  -0.01010   0.00000  -0.03551  -0.00759
   6        3S         -0.08126   0.00000  -0.08373   0.00000   0.00000
   7        3PX         0.11518   0.00000   0.00064   0.00000   0.00000
   8        3PY        -0.10060   0.00000  -0.15543   0.00000   0.00000
   9        3PZ         0.00000  -0.01672   0.00000  -0.04577  -0.01133
  10        4S         -0.06765   0.00000  -0.15717   0.00000   0.00000
  11        4PX         0.03227   0.00000   0.01211   0.00000   0.00000
  12        4PY        -0.01803   0.00000  -0.06103   0.00000   0.00000
  13        4PZ         0.00000   0.01992   0.00000   0.01097   0.00049
  14        5S         -0.10796   0.00000  -0.02003   0.00000   0.00000
  15        5PX         0.04788   0.00000   0.03859   0.00000   0.00000
  16        5PY        -0.03307   0.00000   0.02084   0.00000   0.00000
  17        5PZ         0.00000  -0.01952   0.00000   0.02954   0.00312
  18        6D 0       -0.00507   0.00000   0.02184   0.00000   0.00000
  19        6D+1        0.00000  -0.01447   0.00000   0.00039  -0.00187
  20        6D-1        0.00000   0.00348   0.00000   0.01960   0.00761
  21        6D+2       -0.00827   0.00000  -0.00379   0.00000   0.00000
  22        6D-2       -0.00250   0.00000  -0.00227   0.00000   0.00000
  23        7D 0       -0.01436   0.00000   0.03655   0.00000   0.00000
  24        7D+1        0.00000  -0.03957   0.00000   0.00065  -0.00666
  25        7D-1        0.00000   0.00747   0.00000   0.02476   0.01516
  26        7D+2       -0.01914   0.00000   0.01198   0.00000   0.00000
  27        7D-2       -0.01072   0.00000   0.00014   0.00000   0.00000
  28 2   H  1S          0.00137   0.00000  -0.07464   0.00000   0.00000
  29        2S          0.00410   0.00000  -0.11593   0.00000   0.00000
  30        3S          0.01987   0.00000  -0.03602   0.00000   0.00000
  31        4S         -0.02270   0.00000  -0.03943   0.00000   0.00000
  32        5PX        -0.00001   0.00000   0.00192   0.00000   0.00000
  33        5PY        -0.00064   0.00000  -0.00015   0.00000   0.00000
  34        5PZ         0.00000  -0.00121   0.00000   0.00023   0.00005
  35        6PX         0.00344   0.00000   0.01103   0.00000   0.00000
  36        6PY        -0.00154   0.00000   0.00566   0.00000   0.00000
  37        6PZ         0.00000   0.00389   0.00000  -0.00092  -0.00005
  38        7PX        -0.00277   0.00000  -0.00119   0.00000   0.00000
  39        7PY        -0.01066   0.00000  -0.00175   0.00000   0.00000
  40        7PZ         0.00000  -0.00421   0.00000  -0.00734   0.00107
  41 3   C  1S         -0.02317   0.00000  -0.00281   0.00000   0.00000
  42        2S         -0.03894   0.00000  -0.00473   0.00000   0.00000
  43        2PX        -0.06600   0.00000  -0.09972   0.00000   0.00000
  44        2PY         0.05564   0.00000  -0.01744   0.00000   0.00000
  45        2PZ         0.00000   0.03398   0.00000   0.03086   0.18205
  46        3S          0.09912   0.00000   0.01140   0.00000   0.00000
  47        3PX        -0.10404   0.00000  -0.15745   0.00000   0.00000
  48        3PY         0.08454   0.00000  -0.03029   0.00000   0.00000
  49        3PZ         0.00000   0.04754   0.00000   0.04218   0.28410
  50        4S          0.01888   0.00000   0.03664   0.00000   0.00000
  51        4PX        -0.05359   0.00000  -0.09332   0.00000   0.00000
  52        4PY         0.04142   0.00000  -0.03350   0.00000   0.00000
  53        4PZ         0.00000   0.01996   0.00000   0.00336   0.17679
  54        5S          0.05838   0.00000   0.00378   0.00000   0.00000
  55        5PX         0.04699   0.00000   0.00524   0.00000   0.00000
  56        5PY         0.00300   0.00000  -0.01740   0.00000   0.00000
  57        5PZ         0.00000   0.04191   0.00000   0.00544  -0.02062
  58        6D 0        0.00496   0.00000   0.00028   0.00000   0.00000
  59        6D+1        0.00000   0.00095   0.00000   0.00032  -0.00104
  60        6D-1        0.00000   0.00132   0.00000   0.00314   0.01882
  61        6D+2       -0.00244   0.00000  -0.00149   0.00000   0.00000
  62        6D-2        0.00792   0.00000   0.00880   0.00000   0.00000
  63        7D 0        0.00413   0.00000  -0.00465   0.00000   0.00000
  64        7D+1        0.00000  -0.01006   0.00000  -0.00347   0.00453
  65        7D-1        0.00000   0.00443   0.00000  -0.00441   0.01813
  66        7D+2       -0.01025   0.00000  -0.00214   0.00000   0.00000
  67        7D-2        0.00545   0.00000   0.01202   0.00000   0.00000
  68 4   H  1S          0.04917   0.02173  -0.00213   0.02237   0.13623
  69        2S          0.07858   0.03806  -0.00148   0.04841   0.21778
  70        3S          0.02676  -0.00556   0.01018   0.02250   0.11181
  71        4S          0.00225  -0.02696   0.00799  -0.01662   0.02483
  72        5PX        -0.00036  -0.00017  -0.00074  -0.00009   0.00029
  73        5PY        -0.00061  -0.00035   0.00005  -0.00040  -0.00279
  74        5PZ        -0.00138  -0.00036   0.00005  -0.00027  -0.00253
  75        6PX        -0.00182   0.00200  -0.00442   0.00147   0.00053
  76        6PY        -0.00312  -0.00346  -0.00171  -0.00315  -0.01211
  77        6PZ        -0.00672  -0.00187   0.00054  -0.00291  -0.00799
  78        7PX         0.00085   0.00253   0.00092  -0.00097   0.00048
  79        7PY        -0.00202   0.00044  -0.00322  -0.00576  -0.00898
  80        7PZ        -0.00581   0.00439  -0.00057  -0.00275  -0.01416
  81 5   H  1S          0.04917  -0.02173  -0.00213  -0.02237  -0.13623
  82        2S          0.07858  -0.03806  -0.00148  -0.04841  -0.21778
  83        3S          0.02676   0.00556   0.01018  -0.02250  -0.11181
  84        4S          0.00225   0.02696   0.00799   0.01662  -0.02483
  85        5PX        -0.00036   0.00017  -0.00074   0.00009  -0.00029
  86        5PY        -0.00061   0.00035   0.00005   0.00040   0.00279
  87        5PZ         0.00138  -0.00036  -0.00005  -0.00027  -0.00253
  88        6PX        -0.00182  -0.00200  -0.00442  -0.00147  -0.00053
  89        6PY        -0.00312   0.00346  -0.00171   0.00315   0.01211
  90        6PZ         0.00672  -0.00187  -0.00054  -0.00291  -0.00799
  91        7PX         0.00085  -0.00253   0.00092   0.00097  -0.00048
  92        7PY        -0.00202  -0.00044  -0.00322   0.00576   0.00898
  93        7PZ         0.00581   0.00439   0.00057  -0.00275  -0.01416
  94 6   H  1S          0.04145   0.00000   0.08064   0.00000   0.00000
  95        2S          0.06407   0.00000   0.11314   0.00000   0.00000
  96        3S          0.04948   0.00000   0.03781   0.00000   0.00000
  97        4S          0.03870   0.00000   0.01513   0.00000   0.00000
  98        5PX         0.00098   0.00000   0.00190   0.00000   0.00000
  99        5PY         0.00096   0.00000   0.00147   0.00000   0.00000
 100        5PZ         0.00000   0.00033   0.00000   0.00029   0.00123
 101        6PX         0.00183   0.00000   0.00514   0.00000   0.00000
 102        6PY         0.00717   0.00000   0.00535   0.00000   0.00000
 103        6PZ         0.00000   0.00114   0.00000   0.00071   0.00872
 104        7PX         0.00944   0.00000   0.00375   0.00000   0.00000
 105        7PY         0.01073   0.00000   0.00267   0.00000   0.00000
 106        7PZ         0.00000   0.00556   0.00000  -0.00105   0.00330
 107 7   F  1S          0.00218   0.00056   0.00126  -0.00059  -0.00045
 108        2S          0.00368   0.00095   0.00218  -0.00102  -0.00081
 109        2PX         0.11762   0.21503   0.04999  -0.01578  -0.04347
 110        2PY        -0.08210   0.01069   0.15831  -0.09890   0.06232
 111        2PZ         0.09319   0.01392  -0.01931   0.19768  -0.01761
 112        3S         -0.01081  -0.00354  -0.01061  -0.00023   0.00213
 113        3PX         0.17865   0.32663   0.07611  -0.02387  -0.06581
 114        3PY        -0.12523   0.01682   0.24280  -0.14658   0.09537
 115        3PZ         0.14153   0.02191  -0.02630   0.30344  -0.02558
 116        4S         -0.01576  -0.00257   0.00447   0.01166  -0.00305
 117        4PX         0.15435   0.28606   0.06816  -0.02217  -0.06339
 118        4PY        -0.10764   0.01443   0.21763  -0.13764   0.08700
 119        4PZ         0.11618   0.01684  -0.01949   0.27603  -0.02828
 120        5S          0.01047   0.01103   0.01254  -0.01422   0.01742
 121        5PX        -0.00093   0.02169   0.00291  -0.00146  -0.00929
 122        5PY        -0.00136   0.00628   0.02080  -0.01318   0.01486
 123        5PZ         0.00995   0.00753  -0.00664   0.00401   0.00487
 124        6D 0        0.00169   0.00012   0.00005   0.00089   0.00010
 125        6D+1        0.00118   0.00099   0.00022  -0.00005  -0.00008
 126        6D-1        0.00013   0.00037   0.00148   0.00141   0.00051
 127        6D+2        0.00051  -0.00011  -0.00084  -0.00006  -0.00024
 128        6D-2        0.00087   0.00118   0.00016  -0.00004   0.00004
 129        7D 0        0.00762   0.00059  -0.00142   0.01614  -0.00223
 130        7D+1        0.00781   0.01014   0.00268  -0.00099  -0.00247
 131        7D-1       -0.00145   0.00142   0.00979   0.00813   0.00238
 132        7D+2        0.00467  -0.00111  -0.00650   0.00406  -0.00346
 133        7D-2        0.00648   0.00923   0.00163  -0.00059  -0.00161
 134 8   F  1S          0.00218  -0.00056   0.00126   0.00059   0.00045
 135        2S          0.00368  -0.00095   0.00218   0.00102   0.00081
 136        2PX         0.11762  -0.21503   0.04999   0.01578   0.04347
 137        2PY        -0.08210  -0.01069   0.15831   0.09890  -0.06232
 138        2PZ        -0.09319   0.01392   0.01931   0.19768  -0.01761
 139        3S         -0.01081   0.00354  -0.01061   0.00023  -0.00213
 140        3PX         0.17865  -0.32663   0.07611   0.02387   0.06581
 141        3PY        -0.12523  -0.01682   0.24280   0.14658  -0.09537
 142        3PZ        -0.14153   0.02191   0.02630   0.30344  -0.02558
 143        4S         -0.01576   0.00257   0.00447  -0.01166   0.00305
 144        4PX         0.15435  -0.28606   0.06816   0.02217   0.06339
 145        4PY        -0.10764  -0.01443   0.21763   0.13764  -0.08700
 146        4PZ        -0.11618   0.01684   0.01949   0.27603  -0.02828
 147        5S          0.01047  -0.01103   0.01254   0.01422  -0.01742
 148        5PX        -0.00093  -0.02169   0.00291   0.00146   0.00929
 149        5PY        -0.00136  -0.00628   0.02080   0.01318  -0.01486
 150        5PZ        -0.00995   0.00753   0.00664   0.00401   0.00487
 151        6D 0        0.00169  -0.00012   0.00005  -0.00089  -0.00010
 152        6D+1       -0.00118   0.00099  -0.00022  -0.00005  -0.00008
 153        6D-1       -0.00013   0.00037  -0.00148   0.00141   0.00051
 154        6D+2        0.00051   0.00011  -0.00084   0.00006   0.00024
 155        6D-2        0.00087  -0.00118   0.00016   0.00004  -0.00004
 156        7D 0        0.00762  -0.00059  -0.00142  -0.01614   0.00223
 157        7D+1       -0.00781   0.01014  -0.00268  -0.00099  -0.00247
 158        7D-1        0.00145   0.00142  -0.00979   0.00813   0.00238
 159        7D+2        0.00467   0.00111  -0.00650  -0.00406   0.00346
 160        7D-2        0.00648  -0.00923   0.00163   0.00059   0.00161
                          16        17        18        19        20
                           O         O         V         V         V
     Eigenvalues --    -0.55873  -0.52074   0.03817   0.05464   0.06781
   1 1   C  1S          0.01299   0.00404  -0.00282   0.00985   0.00000
   2        2S          0.02175   0.00717  -0.00466   0.01709   0.00000
   3        2PX         0.00984   0.15819   0.02540  -0.01787   0.00000
   4        2PY        -0.05487  -0.00904   0.00963  -0.02106   0.00000
   5        2PZ         0.00000   0.00000   0.00000   0.00000  -0.00007
   6        3S         -0.05690  -0.02271   0.00756  -0.05241   0.00000
   7        3PX         0.01714   0.24719   0.04288  -0.02114   0.00000
   8        3PY        -0.08439  -0.01957   0.01301  -0.03350   0.00000
   9        3PZ         0.00000   0.00000   0.00000   0.00000   0.00490
  10        4S         -0.13222   0.00268   0.09473  -0.08021   0.00000
  11        4PX         0.00711   0.17501   0.04973  -0.02939   0.00000
  12        4PY        -0.04142  -0.02895  -0.14199   0.12751   0.00000
  13        4PZ         0.00000   0.00000   0.00000   0.00000   0.03170
  14        5S         -0.03895   0.03374   0.07431  -7.08502   0.00000
  15        5PX        -0.00871  -0.02712   0.89475  -0.77903   0.00000
  16        5PY         0.00501   0.00820   0.09780  -1.19015   0.00000
  17        5PZ         0.00000   0.00000   0.00000   0.00000   0.36922
  18        6D 0        0.01158   0.00010  -0.00080   0.00065   0.00000
  19        6D+1        0.00000   0.00000   0.00000   0.00000   0.00047
  20        6D-1        0.00000   0.00000   0.00000   0.00000  -0.00033
  21        6D+2       -0.01120   0.00192   0.00137   0.00021   0.00000
  22        6D-2        0.00115   0.02356  -0.00030   0.00011   0.00000
  23        7D 0        0.02165   0.00310   0.01661  -0.01808   0.00000
  24        7D+1        0.00000   0.00000   0.00000   0.00000   0.01091
  25        7D-1        0.00000   0.00000   0.00000   0.00000  -0.02230
  26        7D+2       -0.02390   0.00506  -0.02007   0.01534   0.00000
  27        7D-2       -0.00006   0.04686  -0.00128   0.01078   0.00000
  28 2   H  1S         -0.03876   0.12335   0.00760   0.00058   0.00000
  29        2S         -0.04623   0.20026   0.04939  -0.04918   0.00000
  30        3S         -0.00864   0.08763  -0.18806   0.17003   0.00000
  31        4S          0.01373   0.02453  -1.72232   4.54247   0.00000
  32        5PX         0.00090  -0.00241  -0.00001   0.00073   0.00000
  33        5PY         0.00069  -0.00147  -0.00072   0.00002   0.00000
  34        5PZ         0.00000   0.00000   0.00000   0.00000   0.00015
  35        6PX         0.00427  -0.01072  -0.00860   0.00881   0.00000
  36        6PY        -0.00066  -0.01098  -0.00197   0.00601   0.00000
  37        6PZ         0.00000   0.00000   0.00000   0.00000   0.00224
  38        7PX        -0.00216  -0.00717   0.01006   0.06737   0.00000
  39        7PY        -0.00632   0.00914  -0.03995   0.00475   0.00000
  40        7PZ         0.00000   0.00000   0.00000   0.00000   0.00561
  41 3   C  1S          0.00359   0.01237  -0.01363  -0.00797   0.00000
  42        2S          0.00618   0.02111  -0.02331  -0.01356   0.00000
  43        2PX         0.05401  -0.12463  -0.01279  -0.01370   0.00000
  44        2PY         0.17111   0.04348   0.02011  -0.00861   0.00000
  45        2PZ         0.00000   0.00000   0.00000   0.00000  -0.03883
  46        3S         -0.01884  -0.05934   0.05969   0.03595   0.00000
  47        3PX         0.08249  -0.19727  -0.02702  -0.02306   0.00000
  48        3PY         0.26508   0.07606   0.03020  -0.00589   0.00000
  49        3PZ         0.00000   0.00000   0.00000   0.00000  -0.04461
  50        4S          0.01591  -0.01034   0.89694   0.42995   0.00000
  51        4PX         0.04975  -0.13606  -0.20918  -0.06365   0.00000
  52        4PY         0.16327   0.05550  -0.03040   0.19574   0.00000
  53        4PZ         0.00000   0.00000   0.00000   0.00000   0.55881
  54        5S          0.00182  -0.06145   7.89082   7.55917   0.00000
  55        5PX        -0.00412  -0.01167  -0.03415   0.34031   0.00000
  56        5PY        -0.00926   0.00848  -0.09619  -0.60858   0.00000
  57        5PZ         0.00000   0.00000   0.00000   0.00000  -1.87933
  58        6D 0        0.01490   0.00360   0.00029  -0.00017   0.00000
  59        6D+1        0.00000   0.00000   0.00000   0.00000  -0.00047
  60        6D-1        0.00000   0.00000   0.00000   0.00000  -0.00426
  61        6D+2       -0.01030  -0.00128  -0.00009  -0.00052   0.00000
  62        6D-2       -0.00571   0.01326  -0.00077   0.00140   0.00000
  63        7D 0        0.01389   0.00945  -0.00868   0.01918   0.00000
  64        7D+1        0.00000   0.00000   0.00000   0.00000   0.00190
  65        7D-1        0.00000   0.00000   0.00000   0.00000   0.08653
  66        7D+2       -0.00979   0.00343   0.01508  -0.02361   0.00000
  67        7D-2       -0.00358   0.01795   0.01690  -0.00804   0.00000
  68 4   H  1S          0.08907   0.01531   0.00506   0.00165  -0.00764
  69        2S          0.14080   0.01371   0.01227  -0.02279  -0.15200
  70        3S          0.07329   0.00974  -0.74995  -0.65875  -0.78732
  71        4S          0.00890   0.00052  -2.07636  -0.83601   4.32692
  72        5PX         0.00050  -0.00077  -0.00028   0.00042  -0.00007
  73        5PY        -0.00058  -0.00024   0.00001   0.00015   0.00025
  74        5PZ        -0.00250  -0.00054  -0.00025   0.00007   0.00041
  75        6PX         0.00351  -0.00574   0.00074  -0.00167  -0.00013
  76        6PY        -0.00010   0.00251  -0.00655  -0.00228   0.00880
  77        6PZ        -0.01055  -0.00039  -0.00821  -0.00170   0.00978
  78        7PX         0.00508   0.00289  -0.02033   0.02034  -0.02124
  79        7PY        -0.00494  -0.00254   0.06120   0.05208   0.13124
  80        7PZ        -0.00900   0.00076   0.04871   0.07954   0.15879
  81 5   H  1S          0.08907   0.01531   0.00506   0.00165   0.00764
  82        2S          0.14080   0.01371   0.01227  -0.02279   0.15200
  83        3S          0.07329   0.00974  -0.74995  -0.65875   0.78732
  84        4S          0.00890   0.00052  -2.07636  -0.83601  -4.32692
  85        5PX         0.00050  -0.00077  -0.00028   0.00042   0.00007
  86        5PY        -0.00058  -0.00024   0.00001   0.00015  -0.00025
  87        5PZ         0.00250   0.00054   0.00025  -0.00007   0.00041
  88        6PX         0.00351  -0.00574   0.00074  -0.00167   0.00013
  89        6PY        -0.00010   0.00251  -0.00655  -0.00228  -0.00880
  90        6PZ         0.01055   0.00039   0.00821   0.00170   0.00978
  91        7PX         0.00508   0.00289  -0.02033   0.02034   0.02124
  92        7PY        -0.00494  -0.00254   0.06120   0.05208  -0.13124
  93        7PZ         0.00900  -0.00076  -0.04871  -0.07954   0.15879
  94 6   H  1S         -0.13289   0.06572   0.00381   0.00344   0.00000
  95        2S         -0.22068   0.10252  -0.05017   0.04795   0.00000
  96        3S         -0.11282   0.05906  -1.14333  -0.36214   0.00000
  97        4S         -0.01557   0.00321  -1.33497  -2.92175   0.00000
  98        5PX        -0.00339   0.00089  -0.00009   0.00019   0.00000
  99        5PY        -0.00124   0.00165   0.00020   0.00006   0.00000
 100        5PZ         0.00000   0.00000   0.00000   0.00000   0.00023
 101        6PX        -0.01520   0.00318   0.00383   0.00947   0.00000
 102        6PY        -0.00380   0.00550   0.00335   0.00379   0.00000
 103        6PZ         0.00000   0.00000   0.00000   0.00000  -0.00324
 104        7PX        -0.01316   0.01144  -0.15338   0.01499   0.00000
 105        7PY        -0.01300  -0.00456  -0.07566   0.00819   0.00000
 106        7PZ         0.00000   0.00000   0.00000   0.00000  -0.00494
 107 7   F  1S         -0.00150   0.00052  -0.00251   0.00027  -0.00168
 108        2S         -0.00257   0.00089  -0.00430   0.00041  -0.00287
 109        2PX        -0.04150  -0.12994  -0.00732  -0.00417   0.00315
 110        2PY         0.06401   0.00178  -0.00092   0.00407   0.00240
 111        2PZ         0.01799  -0.00252  -0.00420   0.00208  -0.00865
 112        3S          0.00615  -0.00272   0.01377  -0.00070   0.00866
 113        3PX        -0.06265  -0.19575  -0.01250  -0.00181   0.00763
 114        3PY         0.09845   0.00208  -0.00201   0.00788   0.00310
 115        3PZ         0.02942  -0.00389  -0.00470   0.00196  -0.01415
 116        4S          0.01268  -0.00603   0.02440  -0.00257   0.02449
 117        4PX        -0.06135  -0.19022  -0.00573  -0.02614  -0.00733
 118        4PY         0.09233   0.00327  -0.00601   0.00647   0.01784
 119        4PZ         0.02517  -0.00550  -0.02586   0.01886   0.00294
 120        5S          0.01825  -0.00866  -0.36441   0.24064   0.09965
 121        5PX        -0.00767  -0.03900   0.01672   0.15065   0.04884
 122        5PY         0.01429  -0.00000  -0.12855   0.06495   0.01464
 123        5PZ         0.00387  -0.00294  -0.06878   0.04408  -0.02302
 124        6D 0        0.00059   0.00003   0.00003  -0.00004  -0.00005
 125        6D+1       -0.00000   0.00025   0.00019  -0.00024  -0.00004
 126        6D-1        0.00069   0.00001   0.00024  -0.00016  -0.00023
 127        6D+2       -0.00051   0.00006  -0.00012   0.00024   0.00002
 128        6D-2       -0.00002   0.00057  -0.00005  -0.00020   0.00001
 129        7D 0        0.00092  -0.00056  -0.00124   0.00107  -0.00072
 130        7D+1       -0.00203  -0.00227   0.00122  -0.00108   0.00026
 131        7D-1        0.00516  -0.00051  -0.00087   0.00024   0.00223
 132        7D+2       -0.00303   0.00067   0.00025   0.00027  -0.00040
 133        7D-2       -0.00144  -0.00136   0.00141  -0.00084  -0.00105
 134 8   F  1S         -0.00150   0.00052  -0.00251   0.00027   0.00168
 135        2S         -0.00257   0.00089  -0.00430   0.00041   0.00287
 136        2PX        -0.04150  -0.12994  -0.00732  -0.00417  -0.00315
 137        2PY         0.06401   0.00178  -0.00092   0.00407  -0.00240
 138        2PZ        -0.01799   0.00252   0.00420  -0.00208  -0.00865
 139        3S          0.00615  -0.00272   0.01377  -0.00070  -0.00866
 140        3PX        -0.06265  -0.19575  -0.01250  -0.00181  -0.00763
 141        3PY         0.09845   0.00208  -0.00201   0.00788  -0.00310
 142        3PZ        -0.02942   0.00389   0.00470  -0.00196  -0.01415
 143        4S          0.01268  -0.00603   0.02440  -0.00257  -0.02449
 144        4PX        -0.06135  -0.19022  -0.00573  -0.02614   0.00733
 145        4PY         0.09233   0.00327  -0.00601   0.00647  -0.01784
 146        4PZ        -0.02517   0.00550   0.02586  -0.01886   0.00294
 147        5S          0.01825  -0.00866  -0.36441   0.24064  -0.09965
 148        5PX        -0.00767  -0.03900   0.01672   0.15065  -0.04884
 149        5PY         0.01429  -0.00000  -0.12855   0.06495  -0.01464
 150        5PZ        -0.00387   0.00294   0.06878  -0.04408  -0.02302
 151        6D 0        0.00059   0.00003   0.00003  -0.00004   0.00005
 152        6D+1        0.00000  -0.00025  -0.00019   0.00024  -0.00004
 153        6D-1       -0.00069  -0.00001  -0.00024   0.00016  -0.00023
 154        6D+2       -0.00051   0.00006  -0.00012   0.00024  -0.00002
 155        6D-2       -0.00002   0.00057  -0.00005  -0.00020  -0.00001
 156        7D 0        0.00092  -0.00056  -0.00124   0.00107   0.00072
 157        7D+1        0.00203   0.00227  -0.00122   0.00108   0.00026
 158        7D-1       -0.00516   0.00051   0.00087  -0.00024   0.00223
 159        7D+2       -0.00303   0.00067   0.00025   0.00027   0.00040
 160        7D-2       -0.00144  -0.00136   0.00141  -0.00084   0.00105
                          21        22        23        24        25
                           V         V         V         V         V
     Eigenvalues --     0.07895   0.12231   0.12546   0.12982   0.14412
   1 1   C  1S          0.00358  -0.00579   0.00000  -0.00734  -0.00595
   2        2S          0.00646  -0.00893   0.00000  -0.01321  -0.01205
   3        2PX        -0.00716   0.01511   0.00000  -0.02555   0.00369
   4        2PY        -0.00997  -0.01876   0.00000   0.01089   0.01208
   5        2PZ         0.00000   0.00000   0.03246   0.00000   0.00000
   6        3S         -0.03148  -0.03549   0.00000   0.06191   0.08864
   7        3PX        -0.01650   0.01064   0.00000  -0.03427   0.01142
   8        3PY        -0.01571  -0.01180   0.00000   0.01110   0.01376
   9        3PZ         0.00000   0.00000   0.06103   0.00000   0.00000
  10        4S          0.15160   0.86807   0.00000  -0.03810  -1.09599
  11        4PX         0.10656  -0.25618   0.00000   0.54823  -0.43369
  12        4PY         0.03254  -0.51644   0.00000   0.02992  -0.26482
  13        4PZ         0.00000   0.00000   0.45164   0.00000   0.00000
  14        5S         -3.67317  -4.79873   0.00000   5.83907  -4.59192
  15        5PX         0.01574   2.15430   0.00000   0.50254  -2.78620
  16        5PY        -0.90205  -2.94834   0.00000   0.42402  -3.24344
  17        5PZ         0.00000   0.00000   2.88539   0.00000   0.00000
  18        6D 0        0.00194  -0.00194   0.00000  -0.00114  -0.00084
  19        6D+1        0.00000   0.00000  -0.00125   0.00000   0.00000
  20        6D-1        0.00000   0.00000   0.00567   0.00000   0.00000
  21        6D+2       -0.00054   0.00263   0.00000   0.00072   0.00070
  22        6D-2       -0.00147   0.00096   0.00000  -0.00248   0.00302
  23        7D 0        0.00022   0.02340   0.00000  -0.00199   0.04643
  24        7D+1        0.00000   0.00000   0.01952   0.00000   0.00000
  25        7D-1        0.00000   0.00000  -0.01601   0.00000   0.00000
  26        7D+2       -0.00543   0.02059   0.00000   0.03436  -0.02934
  27        7D-2       -0.00091  -0.03526   0.00000   0.06198  -0.02788
  28 2   H  1S         -0.00761   0.00230   0.00000   0.00198   0.00078
  29        2S         -0.03531   0.01286   0.00000  -0.07999   0.11027
  30        3S         -0.14774   0.58259   0.00000  -0.70867   1.77472
  31        4S          2.21164  -1.54399   0.00000  -0.07537   3.33072
  32        5PX         0.00039  -0.00092   0.00000  -0.00068   0.00005
  33        5PY         0.00045  -0.00003   0.00000   0.00096  -0.00026
  34        5PZ         0.00000   0.00000  -0.00085   0.00000   0.00000
  35        6PX         0.00369   0.00574   0.00000   0.01208  -0.01252
  36        6PY        -0.00194  -0.01148   0.00000  -0.00861   0.00110
  37        6PZ         0.00000   0.00000   0.01947   0.00000   0.00000
  38        7PX         0.02447  -0.12508   0.00000   0.04002  -0.18676
  39        7PY         0.05113   0.05890   0.00000   0.15439  -0.13984
  40        7PZ         0.00000   0.00000  -0.11141   0.00000   0.00000
  41 3   C  1S         -0.00073  -0.00113   0.00000  -0.00146   0.00259
  42        2S         -0.00138  -0.00263   0.00000  -0.00162   0.00506
  43        2PX         0.02085  -0.00379   0.00000   0.00178  -0.01073
  44        2PY         0.02772  -0.00341   0.00000   0.00015  -0.00497
  45        2PZ         0.00000   0.00000   0.00746   0.00000   0.00000
  46        3S          0.00749   0.02997   0.00000  -0.02576  -0.02927
  47        3PX         0.02590  -0.01623   0.00000   0.02230  -0.01361
  48        3PY         0.03143  -0.00411   0.00000  -0.00320  -0.01338
[...]
     21  0.211442D-01
     22  0.898089D-02  0.193048D-01
     23 -0.949270D-02 -0.933205D-02  0.243031D-01
     24  0.180810D-02 -0.933205D-02  0.137362D-01  0.257709D-01
     25 -0.103552D-01  0.991857D-03  0.138969D-01  0.146308D-01  0.259779D-01
     26 -0.102266D-01 -0.933205D-02 -0.330043D-02 -0.153351D-01 -0.144406D-01
     27  0.107418D-02 -0.933205D-02 -0.138673D-01 -0.330043D-02 -0.137067D-01
     28 -0.110891D-01  0.991857D-03 -0.137067D-01 -0.144406D-01 -0.235958D-02
               26            27            28 
     26  0.257709D-01
     27  0.137362D-01  0.243031D-01
     28  0.146308D-01  0.138969D-01  0.259779D-01
 Leave Link  716 at Fri Sep  6 14:12:28 2024, MaxMem=  1073741824 cpu:               0.1 elap:               0.0
 (Enter /Users/asuyarger/Applications/G16/g16/l103.exe)

 GradGradGradGradGradGradGradGradGradGradGradGradGradGradGradGradGradGrad
 Berny optimization.
 Red2BG is reusing G-inverse.
 Internal  Forces:  Max     0.000002222 RMS     0.000000711
 Search for a local minimum.
 Step number   1 out of a maximum of    2
 All quantities printed in internal units (Hartrees-Bohrs-Radians)
 Second derivative matrix not updated -- analytic derivatives used.
 ITU=  0
     Eigenvalues ---    0.00282   0.04995   0.05004   0.06966   0.10934
     Eigenvalues ---    0.14822   0.14935   0.15668   0.19263   0.25995
     Eigenvalues ---    0.30134   0.36968   0.37082   0.37369   0.37814
     Eigenvalues ---    0.38694   0.41063   0.52062
 Angle between quadratic step and forces=  37.50 degrees.
 Linear search not attempted -- first point.
 Iteration  1 RMS(Cart)=  0.00000767 RMS(Int)=  0.00000000
 Iteration  2 RMS(Cart)=  0.00000000 RMS(Int)=  0.00000000
 ITry= 1 IFail=0 DXMaxC= 2.59D-05 DCOld= 1.00D+10 DXMaxT= 3.00D-01 DXLimC= 3.00D+00 Rises=F
 ClnCor:  largest displacement from symmetrization is 3.64D-12 for atom     5.
 Variable       Old X    -DE/DX   Delta X   Delta X   Delta X     New X
                                 (Linear)    (Quad)   (Total)
    R1        2.03782   0.00000   0.00000   0.00000   0.00000   2.03782
    R2        2.83304   0.00000   0.00000  -0.00000  -0.00000   2.83304
    R3        2.53557   0.00000   0.00000  -0.00000  -0.00000   2.53557
    R4        2.53557   0.00000   0.00000  -0.00000  -0.00000   2.53557
    R5        2.04302   0.00000   0.00000   0.00000   0.00000   2.04303
    R6        2.04302   0.00000   0.00000   0.00000   0.00000   2.04303
    R7        2.04308   0.00000   0.00000   0.00000   0.00000   2.04308
    A1        1.98739  -0.00000   0.00000  -0.00001  -0.00001   1.98738
    A2        1.87846   0.00000   0.00000   0.00000   0.00000   1.87846
    A3        1.87846   0.00000   0.00000   0.00000   0.00000   1.87846
    A4        1.92537   0.00000   0.00000   0.00000   0.00000   1.92537
    A5        1.92537   0.00000   0.00000   0.00000   0.00000   1.92537
    A6        1.86386   0.00000   0.00000   0.00000   0.00000   1.86386
    A7        1.91483  -0.00000   0.00000  -0.00000  -0.00000   1.91482
    A8        1.91483  -0.00000   0.00000  -0.00000  -0.00000   1.91482
    A9        1.90992   0.00000   0.00000   0.00002   0.00002   1.90993
   A10        1.90720  -0.00000   0.00000  -0.00001  -0.00001   1.90720
   A11        1.90850  -0.00000   0.00000  -0.00000  -0.00000   1.90850
   A12        1.90850  -0.00000   0.00000  -0.00000  -0.00000   1.90850
    D1       -1.04768   0.00000   0.00000   0.00001   0.00001  -1.04767
    D2        1.04768  -0.00000   0.00000  -0.00001  -0.00001   1.04767
    D3        3.14159  -0.00000   0.00000  -0.00000   0.00000   3.14159
    D4        3.12144   0.00000   0.00000   0.00001   0.00001   3.12145
    D5       -1.06639  -0.00000   0.00000  -0.00000  -0.00000  -1.06639
    D6        1.02752   0.00000   0.00000   0.00000   0.00000   1.02753
    D7        1.06639   0.00000   0.00000   0.00000   0.00000   1.06639
    D8       -3.12144  -0.00000   0.00000  -0.00001  -0.00001  -3.12145
    D9       -1.02752  -0.00000   0.00000  -0.00000  -0.00000  -1.02753
         Item               Value     Threshold  Converged?
 Maximum Force            0.000002     0.000015     YES
 RMS     Force            0.000001     0.000010     YES
 Maximum Displacement     0.000026     0.000060     YES
 RMS     Displacement     0.000008     0.000040     YES
 Predicted change in Energy=-4.222547D-11
 Optimization completed.
    -- Stationary point found.
                           ----------------------------
                           !   Optimized Parameters   !
                           ! (Angstroms and Degrees)  !
 --------------------------                            --------------------------
 ! Name  Definition              Value          Derivative Info.                !
 --------------------------------------------------------------------------------
 ! R1    R(1,2)                  1.0784         -DE/DX =    0.0                 !
 ! R2    R(1,3)                  1.4992         -DE/DX =    0.0                 !
 ! R3    R(1,7)                  1.3418         -DE/DX =    0.0                 !
 ! R4    R(1,8)                  1.3418         -DE/DX =    0.0                 !
 ! R5    R(3,4)                  1.0811         -DE/DX =    0.0                 !
 ! R6    R(3,5)                  1.0811         -DE/DX =    0.0                 !
 ! R7    R(3,6)                  1.0812         -DE/DX =    0.0                 !
 ! A1    A(2,1,3)              113.8691         -DE/DX =    0.0                 !
 ! A2    A(2,1,7)              107.6276         -DE/DX =    0.0                 !
 ! A3    A(2,1,8)              107.6276         -DE/DX =    0.0                 !
 ! A4    A(3,1,7)              110.3156         -DE/DX =    0.0                 !
 ! A5    A(3,1,8)              110.3156         -DE/DX =    0.0                 !
 ! A6    A(7,1,8)              106.7914         -DE/DX =    0.0                 !
 ! A7    A(1,3,4)              109.7115         -DE/DX =    0.0                 !
 ! A8    A(1,3,5)              109.7115         -DE/DX =    0.0                 !
 ! A9    A(1,3,6)              109.4301         -DE/DX =    0.0                 !
 ! A10   A(4,3,5)              109.2746         -DE/DX =    0.0                 !
 ! A11   A(4,3,6)              109.3492         -DE/DX =    0.0                 !
 ! A12   A(5,3,6)              109.3492         -DE/DX =    0.0                 !
 ! D1    D(2,1,3,4)            -60.0275         -DE/DX =    0.0                 !
 ! D2    D(2,1,3,5)             60.0275         -DE/DX =    0.0                 !
 ! D3    D(2,1,3,6)            180.0            -DE/DX =    0.0                 !
 ! D4    D(7,1,3,4)            178.8453         -DE/DX =    0.0                 !
 ! D5    D(7,1,3,5)            -61.0996         -DE/DX =    0.0                 !
 ! D6    D(7,1,3,6)             58.8728         -DE/DX =    0.0                 !
 ! D7    D(8,1,3,4)             61.0996         -DE/DX =    0.0                 !
 ! D8    D(8,1,3,5)           -178.8453         -DE/DX =    0.0                 !
 ! D9    D(8,1,3,6)            -58.8728         -DE/DX =    0.0                 !
 --------------------------------------------------------------------------------
 GradGradGradGradGradGradGradGradGradGradGradGradGradGradGradGradGradGrad

 Leave Link  103 at Fri Sep  6 14:12:28 2024, MaxMem=  1073741824 cpu:               0.1 elap:               0.0
 (Enter /Users/asuyarger/Applications/G16/g16/l9999.exe)

 ----------------------------------------------------------------------

 Electric dipole moment (input orientation):
 (Debye = 10**-18 statcoulomb cm , SI units = C m)
                  (au)            (Debye)         (10**-30 SI)
   Tot        0.957596D+00      0.243397D+01      0.811883D+01
   x         -0.139384D+00     -0.354279D+00     -0.118175D+01
   y          0.947397D+00      0.240804D+01      0.803237D+01
   z          0.000000D+00      0.000000D+00      0.000000D+00

 Dipole polarizability, Alpha (input orientation).
 (esu units = cm**3 , SI units = C**2 m**2 J**-1)
 Alpha(0;0):
               (au)            (10**-24 esu)      (10**-40 SI)
   iso        0.257268D+02      0.381232D+01      0.424178D+01
   aniso      0.156447D+01      0.231830D+00      0.257946D+00
   xx         0.255597D+02      0.378755D+01      0.421422D+01
   yx        -0.891571D+00     -0.132117D+00     -0.147000D+00
   yy         0.258090D+02      0.382451D+01      0.425534D+01
   zx         0.000000D+00      0.000000D+00      0.000000D+00
   zy         0.000000D+00      0.000000D+00      0.000000D+00
   zz         0.258117D+02      0.382491D+01      0.425578D+01

 First dipole hyperpolarizability, Beta (input orientation).
 ||, _|_  parallel and perpendicular components, (z) with respect to z axis,
 vector components x,y,z.  Values do not include the 1/n! factor of 1/2.
 (esu units = statvolt**-1 cm**4 , SI units = C**3 m**3 J**-2)
 Beta(0;0,0):
               (au)            (10**-30 esu)      (10**-50 SI)
   || (z)     0.000000D+00      0.000000D+00      0.000000D+00
   _|_(z)     0.000000D+00      0.000000D+00      0.000000D+00
   x         -0.766022D+02     -0.661784D+00     -0.245614D+00
   y          0.209185D+03      0.180720D+01      0.670723D+00
   z          0.000000D+00      0.000000D+00      0.000000D+00
   ||         0.445539D+02      0.384911D+00      0.142856D+00
   xxx       -0.115275D+02     -0.995891D-01     -0.369615D-01
   xxy        0.835368D+01      0.721693D-01      0.267849D-01
   yxy       -0.675764D+01     -0.583807D-01     -0.216674D-01
   yyy        0.357477D+02      0.308832D+00      0.114620D+00
   xxz        0.000000D+00      0.000000D+00      0.000000D+00
   yxz        0.000000D+00      0.000000D+00      0.000000D+00
   yyz        0.000000D+00      0.000000D+00      0.000000D+00
   zxz       -0.724888D+01     -0.626247D-01     -0.232425D-01
   zyz        0.256269D+02      0.221397D+00      0.821693D-01
   zzz        0.000000D+00      0.000000D+00      0.000000D+00

 ----------------------------------------------------------------------

 Dipole orientation:
     6          0.62031617          0.09126289          0.25880229
     1          2.48161320          0.36510282          1.04192349
     6         -1.41177015         -0.20770411          2.21004552
     1         -1.00878820         -1.83244722          3.38126868
     1         -1.49380981          1.46425705          3.38126868
     1         -3.21215418         -0.47258233          1.28126950
     9          0.11789048          2.07474370         -1.23869431
     9          0.71044671         -1.95287610         -1.23869431

 Electric dipole moment (dipole orientation):
 (Debye = 10**-18 statcoulomb cm , SI units = C m)
                  (au)            (Debye)         (10**-30 SI)
   Tot        0.957596D+00      0.243397D+01      0.811883D+01
   x          0.000000D+00      0.000000D+00      0.000000D+00
   y          0.000000D+00      0.000000D+00      0.000000D+00
   z          0.957596D+00      0.243397D+01      0.811883D+01

 Dipole polarizability, Alpha (dipole orientation).
 (esu units = cm**3 , SI units = C**2 m**2 J**-1)
 Alpha(0;0):
               (au)            (10**-24 esu)      (10**-40 SI)
   iso        0.257268D+02      0.381232D+01      0.424178D+01
   aniso      0.156447D+01      0.231830D+00      0.257946D+00
   xx         0.253188D+02      0.375187D+01      0.417451D+01
   yx        -0.725165D-01     -0.107458D-01     -0.119564D-01
   yy         0.258011D+02      0.382333D+01      0.425402D+01
   zx        -0.809172D+00     -0.119907D+00     -0.133414D+00
   zy        -0.119048D+00     -0.176411D-01     -0.196284D-01
   zz         0.260605D+02      0.386177D+01      0.429680D+01

 First dipole hyperpolarizability, Beta (dipole orientation).
 ||, _|_  parallel and perpendicular components, (z) with respect to z axis,
 vector components x,y,z.  Values do not include the 1/n! factor of 1/2.
 (esu units = statvolt**-1 cm**4 , SI units = C**3 m**3 J**-2)
 Beta(0;0,0):
               (au)            (10**-30 esu)      (10**-50 SI)
   || (z)     0.436214D+02      0.376855D+00      0.139866D+00
   _|_(z)     0.145405D+02      0.125618D+00      0.466220D-01
   x         -0.448554D+02     -0.387515D+00     -0.143822D+00
   y         -0.659926D+01     -0.570125D-01     -0.211596D-01
   z          0.218107D+03      0.188428D+01      0.699330D+00
   ||         0.445539D+02      0.384911D+00      0.142856D+00
   xxx       -0.787380D+01     -0.680235D-01     -0.252462D-01
   xxy       -0.156548D+00     -0.135245D-02     -0.501950D-03
   yxy       -0.335420D+01     -0.289777D-01     -0.107548D-01
   yyy       -0.149535D+01     -0.129187D-01     -0.479463D-02
   xxz        0.861159D+01      0.743975D-01      0.276119D-01
   yxz       -0.261843D+01     -0.226212D-01     -0.839564D-02
   yyz        0.260239D+02      0.224826D+00      0.834421D-01
   zxz       -0.372379D+01     -0.321706D-01     -0.119398D-01
   zyz       -0.547855D+00     -0.473304D-02     -0.175662D-02
   zzz        0.380669D+02      0.328868D+00      0.122056D+00

 ----------------------------------------------------------------------
 1\1\GINC-JEFFSMACSTUDIO\Freq\RHF\6-311++G(2d,3p)\C2H4F2\ROOT\06-Sep-20
 24\0\\#P Geom=AllCheck Guess=TCheck SCRF=Check GenChk RHF/6-311++G(2d,
 3p) Freq\\r152a HF 6-311++g(2d,3p) Opt Freq - Full\\0,1\C,0.3083229123
 ,0.1837879692,0.\H,1.2329589066,0.7386942353,0.\C,-0.9173055315,1.0471
 381703,0.\H,-0.9226014193,1.6728154059,0.8816600949\H,-0.9226014193,1.
 6728154059,-0.8816600949\H,-1.7984886796,0.4207179005,0.\F,0.314579115
 5,-0.6162630435,-1.0771338163\F,0.3145791155,-0.6162630435,1.077133816
 3\\Version=EM64M-G16RevA.03\State=1-A'\HF=-277.0398632\RMSD=9.294e-10\
 RMSF=8.471e-07\ZeroPoint=0.0645864\Thermal=0.0687119\Dipole=-0.1393841
 ,0.9473973,0.\DipoleDeriv=0.9034936,-0.1277861,0.,-0.1716932,1.302644,
 0.,0.,0.,1.5261518,-0.1378318,-0.0829734,0.,-0.010277,-0.0370297,0.,0.
 ,0.,0.0058635,-0.0955572,0.1607399,0.,0.0615433,0.0292038,0.,0.,0.,0.0
 957259,0.0554486,-0.0006086,-0.0246344,0.0103526,0.0104181,-0.0825314,
 -0.0030775,-0.1027989,-0.0551667,0.0554486,-0.0006086,0.0246344,0.0103
 526,0.0104181,0.0825314,0.0030775,0.1027989,-0.0551667,-0.0590317,-0.0
 459031,0.,-0.0843446,-0.0153705,0.,0.,0.,0.0840525,-0.3609851,0.04857,
 0.0213508,0.0920332,-0.6501419,-0.4024394,0.0633418,-0.3180395,-0.8007
 301,-0.3609851,0.04857,-0.0213508,0.0920332,-0.6501419,0.4024394,-0.06
 33418,0.3180395,-0.8007301\Polar=25.5596813,-0.891571,25.8090433,0.,0.
 ,25.8117467\PolarDeriv=-2.2426216,-3.6185927,0.236035,0.,0.,0.1363758,
 -6.5177332,-0.8706139,-0.8284135,0.,0.0000002,1.8303935,0.,-0.0000002,
 0.,-0.6778103,3.3062776,0.,6.8053048,2.0639981,1.8283392,0.,0.,1.31077
 2,3.2447675,1.8912282,2.428251,0.,0.,0.5474284,0.,-0.0000001,-0.000000
 5,1.1884574,0.4116377,-0.0000004,1.7259045,4.440862,0.1889772,0.,0.,0.
 2097533,5.0711455,0.3324025,-0.5080227,0.,-0.0000002,-4.9966219,-0.000
 0006,0.,-0.0000007,0.2628022,-5.0004233,-0.0000007,-0.3732471,0.333146
 8,-0.115401,0.9386049,-0.1271231,-0.1534669,0.530102,-0.4769776,3.4549
 176,-0.241288,2.1506237,2.9312566,1.3859287,-0.3484273,2.7083442,-0.47
 10584,2.927872,4.9518863,-0.3732471,0.3331468,-0.115401,-0.9386049,0.1
 271231,-0.1534669,0.530102,-0.4769776,3.4549176,0.241288,-2.1506237,2.
 9312566,-1.3859287,0.3484273,-2.7083442,-0.4710584,2.927872,-4.9518863
 ,-6.3256692,-2.2140125,-2.0670003,0.,0.,-1.2533135,-3.5544518,-1.83279
 18,-2.3912115,0.,0.,-0.3966853,0.,0.,0.,-1.0655158,0.0625738,0.,0.3917
 881,-0.6692742,0.0222256,-1.2381731,0.0759316,-0.0483269,0.3480333,0.7
 16865,-2.8052192,0.3987713,-2.1183857,-1.4235139,0.2980872,0.6436377,-
 1.0997562,0.6170918,-2.3179047,-4.4526588,0.3917881,-0.6692742,0.02222
 56,1.2381731,-0.0759316,-0.0483269,0.3480333,0.716865,-2.8052192,-0.39
 87713,2.1183857,-1.4235139,-0.2980872,-0.6436377,1.0997562,0.6170918,-
 2.3179047,4.4526588\HyperPolar=-11.5275499,8.353683,-6.7576386,35.7477
 064,0.,0.,0.,-7.2488847,25.6269473,0.\Quadrupole=1.4501588,0.2336041,-
 1.6837629,0.4668827,0.,0.\PG=CS [SG(C2H2),X(H2F2)]\NImag=0\\0.73352379
 ,0.05483149,0.66793719,0.,0.,0.54304768,-0.29325874,-0.12128507,0.,0.2
 9712062,-0.10695548,-0.12979463,0.,0.13343358,0.15402600,0.,0.,-0.0559
 1126,0.,0.,0.07974662,-0.22666608,0.07517215,0.,-0.02034365,0.01953480
 ,0.,0.59972317,0.05193222,-0.13781768,0.,-0.01561318,0.01607425,0.,0.0
 3619647,0.63176805,0.,0.,-0.08413747,0.,0.,0.00594582,0.,0.,0.66016907
 ,0.00591234,0.01444086,0.02761054,0.00054773,-0.00138627,-0.00055462,-
 0.06038581,0.00037987,-0.00286275,0.05732376,-0.00649051,-0.01153403,-
 0.01906174,0.00044413,0.00062086,0.00080246,0.00303365,-0.15284178,-0.
 13267756,-0.00303093,0.16071609,-0.00173970,0.00221537,-0.00267959,0.0
 0080362,-0.00018567,0.00033706,0.00224182,-0.13684027,-0.24713429,-0.0
 0094362,0.15018431,0.26521219,0.00591235,0.01444086,-0.02761054,0.0005
 4773,-0.00138628,0.00055462,-0.06038581,0.00037987,0.00286275,-0.00101
 336,-0.00059626,0.00040746,0.05732376,-0.00649051,-0.01153403,0.019061
 74,0.00044413,0.00062086,-0.00080246,0.00303365,-0.15284178,0.13267757
 ,-0.00059626,0.01611212,-0.01763843,-0.00303093,0.16071609,0.00173970,
 -0.00221537,-0.00267959,-0.00080363,0.00018566,0.00033706,-0.00224182,
 0.13684026,-0.24713429,-0.00040746,0.01763843,-0.02152973,0.00094362,-
 0.15018431,0.26521219,-0.03262485,-0.02577546,0.,-0.00334187,0.0049466
 5,0.,-0.24626732,-0.13186223,0.,0.00278908,0.00170236,-0.00096898,0.00
 278908,0.00170236,0.00096898,0.26728687,0.02262769,0.01466003,0.,0.003
 91345,-0.00263837,0.,-0.13793487,-0.15619822,0.,-0.01616701,-0.0112444
 0,0.00151907,-0.01616701,-0.01124440,-0.00151907,0.14824965,0.16281695
 ,0.,0.,-0.00131284,0.,0.,0.00093788,0.,0.,-0.05658595,-0.02585608,-0.0
 1625794,0.00209196,0.02585608,0.01625794,0.00209196,0.,0.,0.05262632,-
 0.09639940,-0.00591242,-0.00446563,0.00936409,-0.02409350,-0.02990606,
 0.00716275,0.02929349,0.03302617,-0.00616943,0.00563768,0.00007236,0.0
 0099569,-0.00070012,-0.00012703,0.00468449,-0.00226095,0.00009790,0.06
 893477,-0.00472745,-0.19595842,-0.11082038,-0.00066852,-0.01945449,-0.
 03449566,0.00048207,-0.02407142,-0.03839904,0.00837050,-0.00321184,0.0
 0072336,-0.00201076,0.00138297,-0.00002224,0.00051833,0.00192421,0.000
 50450,-0.00340991,0.20932859,-0.00194668,-0.12420401,-0.19816346,-0.00
 375587,-0.01977535,-0.01569659,0.00107196,-0.01590133,-0.01556145,0.00
 344872,-0.00234913,0.00204679,0.00043472,-0.00172117,0.00165562,0.0000
 6942,0.00148692,0.00007534,0.00099001,0.17248676,0.31228500,-0.0963994
 0,-0.00591242,0.00446563,0.00936409,-0.02409350,0.02990606,0.00716275,
 0.02929349,-0.03302617,0.00099569,-0.00070012,0.00012703,-0.00616943,0
 .00563768,-0.00007236,0.00468449,-0.00226095,-0.00009790,0.01142704,0.
 00144573,-0.00031228,0.06893477,-0.00472745,-0.19595842,0.11082038,-0.
 00066852,-0.01945449,0.03449566,0.00048207,-0.02407142,0.03839904,-0.0
 0201076,0.00138297,0.00002224,0.00837050,-0.00321184,-0.00072336,0.000
 51833,0.00192420,-0.00050450,0.00144573,0.03006040,-0.01002270,-0.0034
 0991,0.20932859,0.00194668,0.12420400,-0.19816346,0.00375587,0.0197753
 5,-0.01569659,-0.00107197,0.01590133,-0.01556144,-0.00043472,0.0017211
 7,0.00165562,-0.00344872,0.00234913,0.00204679,-0.00006942,-0.00148692
 ,0.00007534,0.00031228,0.01002270,-0.08664126,-0.00099001,-0.17248676,
 0.31228500\\0.00000093,0.00000054,0.,-0.00000113,-0.00000097,0.,-0.000
 00125,0.00000231,0.,-0.00000015,-0.00000076,-0.00000073,-0.00000015,-0
 .00000076,0.00000073,0.00000211,-0.00000022,0.,-0.00000018,-0.00000006
 ,0.00000026,-0.00000018,-0.00000006,-0.00000026\\\@


 HONESTY IN A LAWYER IS LIKE A HEN'S HIND LEGS.
  -- MAGNUS OLESON, LAKE WOBEGON PATRIARCH, C.1875
 Job cpu time:       0 days  0 hours  0 minutes  8.5 seconds.
 Elapsed time:       0 days  0 hours  0 minutes  7.9 seconds.
 File lengths (MBytes):  RWF=     22 Int=      0 D2E=      0 Chk=      3 Scr=      1
 Normal termination of Gaussian 16 at Fri Sep  6 14:12:28 2024.
