 Entering Gaussian System, Link 0=g16
 Input=/Users/asuyarger/Downloads/r32_HF_6311pp2d3p_Opt_Freq_Full_NBO.gjf
 Output=/Users/asuyarger/Downloads/r32_HF_6311pp2d3p_Opt_Freq_Full_NBO.log
 Initial command:
 /Users/asuyarger/Applications/G16/g16/l1.exe "/Users/asuyarger/Applications/G16/scratch/Gau-89368.inp" -scrdir="/Users/asuyarger/Applications/G16/scratch/"
 Entering Link 1 = /Users/asuyarger/Applications/G16/g16/l1.exe PID=     89369.
  
 Copyright (c) 1988,1990,1992,1993,1995,1998,2003,2009,2016,
            Gaussian, Inc.  All Rights Reserved.
  
 This is part of the Gaussian(R) 16 program.  It is based on
 the Gaussian(R) 09 system (copyright 2009, Gaussian, Inc.),
 the Gaussian(R) 03 system (copyright 2003, Gaussian, Inc.),
 the Gaussian(R) 98 system (copyright 1998, Gaussian, Inc.),
 the Gaussian(R) 94 system (copyright 1995, Gaussian, Inc.),
 the Gaussian 92(TM) system (copyright 1992, Gaussian, Inc.),
 the Gaussian 90(TM) system (copyright 1990, Gaussian, Inc.),
 the Gaussian 88(TM) system (copyright 1988, Gaussian, Inc.),
 the Gaussian 86(TM) system (copyright 1986, Carnegie Mellon
 University), and the Gaussian 82(TM) system (copyright 1983,
 Carnegie Mellon University). Gaussian is a federally registered
 trademark of Gaussian, Inc.
  
 This software contains proprietary and confidential information,
 including trade secrets, belonging to Gaussian, Inc.
  
 This software is provided under written license and may be
 used, copied, transmitted, or stored only in accord with that
 written license.
  
 The following legend is applicable only to US Government
 contracts under FAR:
  
                    RESTRICTED RIGHTS LEGEND
  
 Use, reproduction and disclosure by the US Government is
 subject to restrictions as set forth in subparagraphs (a)
 and (c) of the Commercial Computer Software - Restricted
 Rights clause in FAR 52.227-19.
  
 Gaussian, Inc.
 340 Quinnipiac St., Bldg. 40, Wallingford CT 06492
  
  
 ---------------------------------------------------------------
 Warning -- This program may not be used in any manner that
 competes with the business of Gaussian, Inc. or will provide
 assistance to any competitor of Gaussian, Inc.  The licensee
 of this program is prohibited from giving any competitor of
 Gaussian, Inc. access to this program.  By using this program,
 the user acknowledges that Gaussian, Inc. is engaged in the
 business of creating and licensing software in the field of
 computational chemistry and represents and warrants to the
 licensee that it is not a competitor of Gaussian, Inc. and that
 it will not use this program in any manner prohibited above.
 ---------------------------------------------------------------
  

 Cite this work as:
 Gaussian 16, Revision A.03,
 M. J. Frisch, G. W. Trucks, H. B. Schlegel, G. E. Scuseria, 
 M. A. Robb, J. R. Cheeseman, G. Scalmani, V. Barone, 
 G. A. Petersson, H. Nakatsuji, X. Li, M. Caricato, A. V. Marenich, 
 J. Bloino, B. G. Janesko, R. Gomperts, B. Mennucci, H. P. Hratchian, 
 J. V. Ortiz, A. F. Izmaylov, J. L. Sonnenberg, D. Williams-Young, 
 F. Ding, F. Lipparini, F. Egidi, J. Goings, B. Peng, A. Petrone, 
 T. Henderson, D. Ranasinghe, V. G. Zakrzewski, J. Gao, N. Rega, 
 G. Zheng, W. Liang, M. Hada, M. Ehara, K. Toyota, R. Fukuda, 
 J. Hasegawa, M. Ishida, T. Nakajima, Y. Honda, O. Kitao, H. Nakai, 
 T. Vreven, K. Throssell, J. A. Montgomery, Jr., J. E. Peralta, 
 F. Ogliaro, M. J. Bearpark, J. J. Heyd, E. N. Brothers, K. N. Kudin, 
 V. N. Staroverov, T. A. Keith, R. Kobayashi, J. Normand, 
 K. Raghavachari, A. P. Rendell, J. C. Burant, S. S. Iyengar, 
 J. Tomasi, M. Cossi, J. M. Millam, M. Klene, C. Adamo, R. Cammi, 
 J. W. Ochterski, R. L. Martin, K. Morokuma, O. Farkas, 
 J. B. Foresman, and D. J. Fox, Gaussian, Inc., Wallingford CT, 2016.
 
 ******************************************
 Gaussian 16:  EM64M-G16RevA.03 25-Dec-2016
                 6-Sep-2024 
 ******************************************
 %nprocshared=10
 Will use up to   10 processors via shared memory.
 %mem=8GB
 %chk=r32_HF_6311pp2d3p_Opt_Freq_Full_NBO.chk
 ----------------------------------------------------------------------
 #p opt=tight freq hf/6-311++g(2d,3p) guess=save pop=(hirshfeld,full,nb
 o) geom=connectivity polar
 ----------------------------------------------------------------------
 1/7=10,18=20,19=15,38=1,57=2/1,3;
 2/9=110,12=2,17=6,18=5,40=1/2;
 3/5=4,6=6,7=1512,11=9,25=1,30=1,71=1/1,2,3;
 4//1;
 5/5=2,38=5,98=1/2;
 6/7=3,28=1,40=1,79=1/1,7;
 7//1,2,3,16;
 1/7=10,18=20,19=15/3(2);
 2/9=110/2;
 99//99;
 2/9=110/2;
 3/5=4,6=6,7=1512,11=9,25=1,30=1,71=1/1,2,3;
 4/5=5,16=3,69=1/1;
 5/5=2,38=5,98=1/2;
 7//1,2,3,16;
 1/7=10,18=20,19=15/3(-5);
 2/9=110/2;
 6/7=3,19=2,28=1,40=1,79=1/1,7;
 99/9=1/99;
 Leave Link    1 at Fri Sep  6 11:00:18 2024, MaxMem=  1073741824 cpu:               0.2 elap:               0.0
 (Enter /Users/asuyarger/Applications/G16/g16/l101.exe)
 --------------------------------------------
 R32 HF 6-311++g(2d,3p) Opt Freq - Full - NBO
 --------------------------------------------
 Symbolic Z-matrix:
 Charge =  0 Multiplicity = 1
 C                    -0.93128   0.8047    0. 
 H                    -0.57463  -0.20411  0. 
 H                    -0.57461   1.3091   -0.87365 
 F                    -0.48128   1.44109   1.10227 
 F                    -2.28128   0.80472  0. 
 
 ITRead=  0  0  0  0  0
 MicOpt= -1 -1 -1 -1 -1
 NAtoms=      5 NQM=        5 NQMF=       0 NMMI=      0 NMMIF=      0
                NMic=       0 NMicF=      0.
                    Isotopes and Nuclear Properties:
 (Nuclear quadrupole moments (NQMom) in fm**2, nuclear magnetic moments (NMagM)
  in nuclear magnetons)

  Atom         1           2           3           4           5
 IAtWgt=          12           1           1          19          19
 AtmWgt=  12.0000000   1.0078250   1.0078250  18.9984033  18.9984033
 NucSpn=           0           1           1           1           1
 AtZEff=  -0.0000000  -0.0000000  -0.0000000  -0.0000000  -0.0000000
 NQMom=    0.0000000   0.0000000   0.0000000   0.0000000   0.0000000
 NMagM=    0.0000000   2.7928460   2.7928460   2.6288670   2.6288670
 AtZNuc=   6.0000000   1.0000000   1.0000000   9.0000000   9.0000000
 Leave Link  101 at Fri Sep  6 11:00:18 2024, MaxMem=  1073741824 cpu:               1.5 elap:               0.2
 (Enter /Users/asuyarger/Applications/G16/g16/l103.exe)

 GradGradGradGradGradGradGradGradGradGradGradGradGradGradGradGradGradGrad
 Berny optimization.
 Initialization pass.
                           ----------------------------
                           !    Initial Parameters    !
                           ! (Angstroms and Degrees)  !
 --------------------------                            --------------------------
 ! Name  Definition              Value          Derivative Info.                !
 --------------------------------------------------------------------------------
 ! R1    R(1,2)                  1.07           estimate D2E/DX2                !
 ! R2    R(1,3)                  1.07           estimate D2E/DX2                !
 ! R3    R(1,4)                  1.35           estimate D2E/DX2                !
 ! R4    R(1,5)                  1.35           estimate D2E/DX2                !
 ! A1    A(2,1,3)              109.4712         estimate D2E/DX2                !
 ! A2    A(2,1,4)              109.4712         estimate D2E/DX2                !
 ! A3    A(2,1,5)              109.4712         estimate D2E/DX2                !
 ! A4    A(3,1,4)              109.4712         estimate D2E/DX2                !
 ! A5    A(3,1,5)              109.4712         estimate D2E/DX2                !
 ! A6    A(4,1,5)              109.4712         estimate D2E/DX2                !
 ! D1    D(2,1,4,3)            120.0            estimate D2E/DX2                !
 ! D2    D(2,1,5,3)           -120.0            estimate D2E/DX2                !
 ! D3    D(2,1,5,4)            120.0            estimate D2E/DX2                !
 ! D4    D(3,1,5,4)           -120.0            estimate D2E/DX2                !
 --------------------------------------------------------------------------------
 Trust Radius=3.00D-01 FncErr=1.00D-07 GrdErr=1.00D-07 EigMax=2.50D+02 EigMin=1.00D-04
 Number of steps in this run=     24 maximum allowed number of steps=    100.
 GradGradGradGradGradGradGradGradGradGradGradGradGradGradGradGradGradGrad

 Leave Link  103 at Fri Sep  6 11:00:18 2024, MaxMem=  1073741824 cpu:               0.1 elap:               0.0
 (Enter /Users/asuyarger/Applications/G16/g16/l202.exe)
                          Input orientation:                          
 ---------------------------------------------------------------------
 Center     Atomic      Atomic             Coordinates (Angstroms)
 Number     Number       Type             X           Y           Z
 ---------------------------------------------------------------------
      1          6           0       -0.931284    0.804702    0.000000
      2          1           0       -0.574630   -0.204109   -0.000000
      3          1           0       -0.574611    1.309100   -0.873651
      4          9           0       -0.481276    1.441092    1.102270
      5          9           0       -2.281284    0.804718   -0.000000
 ---------------------------------------------------------------------
                    Distance matrix (angstroms):
                    1          2          3          4          5
     1  C    0.000000
     2  H    1.070000   0.000000
     3  H    1.070000   1.747303   0.000000
     4  F    1.350000   1.982524   1.982524   0.000000
     5  F    1.350000   1.982524   1.982524   2.204541   0.000000
 Stoichiometry    CH2F2
 Framework group  C2V[C2(C),SGV(F2),SGV'(H2)]
 Deg. of freedom     4
 Full point group                 C2V     NOp   4
 Largest Abelian subgroup         C2V     NOp   4
 Largest concise Abelian subgroup C2V     NOp   4
                         Standard orientation:                         
 ---------------------------------------------------------------------
 Center     Atomic      Atomic             Coordinates (Angstroms)
 Number     Number       Type             X           Y           Z
 ---------------------------------------------------------------------
      1          6           0       -0.000000    0.000000    0.492080
      2          1           0       -0.873651    0.000000    1.109845
      3          1           0        0.873651    0.000000    1.109845
      4          9           0        0.000000    1.102270   -0.287343
      5          9           0       -0.000000   -1.102270   -0.287343
 ---------------------------------------------------------------------
 Rotational constants (GHZ):          50.9657562          10.5939265           9.2655813
 Leave Link  202 at Fri Sep  6 11:00:18 2024, MaxMem=  1073741824 cpu:               0.0 elap:               0.0
 (Enter /Users/asuyarger/Applications/G16/g16/l301.exe)
 Standard basis: 6-311++G(2d,3p) (5D, 7F)
 Ernie: Thresh=  0.10000D-02 Tol=  0.10000D-05 Strict=F.
 There are    46 symmetry adapted cartesian basis functions of A1  symmetry.
 There are    13 symmetry adapted cartesian basis functions of A2  symmetry.
 There are    24 symmetry adapted cartesian basis functions of B1  symmetry.
 There are    30 symmetry adapted cartesian basis functions of B2  symmetry.
 There are    42 symmetry adapted basis functions of A1  symmetry.
 There are    13 symmetry adapted basis functions of A2  symmetry.
 There are    24 symmetry adapted basis functions of B1  symmetry.
 There are    28 symmetry adapted basis functions of B2  symmetry.
   107 basis functions,   156 primitive gaussians,   113 cartesian basis functions
    13 alpha electrons       13 beta electrons
       nuclear repulsion energy        77.6240968989 Hartrees.
 IExCor=    0 DFT=F Ex=HF Corr=None ExCW=0 ScaHFX=  1.000000
 ScaDFX=  1.000000  1.000000  1.000000  1.000000 ScalE2=  1.000000  1.000000
 IRadAn=      5 IRanWt=     -1 IRanGd=            0 ICorTp=0 IEmpDi=  4
 NAtoms=    5 NActive=    5 NUniq=    3 SFac= 2.78D+00 NAtFMM=   60 NAOKFM=F Big=F
 Integral buffers will be    131072 words long.
 Raffenetti 1 integral format.
 Two-electron integral symmetry is turned on.
 Leave Link  301 at Fri Sep  6 11:00:18 2024, MaxMem=  1073741824 cpu:               0.2 elap:               0.0
 (Enter /Users/asuyarger/Applications/G16/g16/l302.exe)
 NPDir=0 NMtPBC=     1 NCelOv=     1 NCel=       1 NClECP=     1 NCelD=      1
         NCelK=      1 NCelE2=     1 NClLst=     1 CellRange=     0.0.
 One-electron integrals computed using PRISM.
 One-electron integral symmetry used in STVInt
 NBasis=   107 RedAO= T EigKep=  6.28D-04  NBF=    42    13    24    28
 NBsUse=   107 1.00D-06 EigRej= -1.00D+00 NBFU=    42    13    24    28
 Leave Link  302 at Fri Sep  6 11:00:18 2024, MaxMem=  1073741824 cpu:               0.7 elap:               0.1
 (Enter /Users/asuyarger/Applications/G16/g16/l303.exe)
 DipDrv:  MaxL=1.
 Leave Link  303 at Fri Sep  6 11:00:18 2024, MaxMem=  1073741824 cpu:               0.2 elap:               0.0
 (Enter /Users/asuyarger/Applications/G16/g16/l401.exe)
 ExpMin= 3.60D-02 ExpMax= 1.14D+04 ExpMxC= 1.72D+03 IAcc=3 IRadAn=         5 AccDes= 0.00D+00
 Harris functional with IExCor=  205 and IRadAn=       5 diagonalized for initial guess.
 HarFok:  IExCor=  205 AccDes= 0.00D+00 IRadAn=         5 IDoV= 1 UseB2=F ITyADJ=14
 ICtDFT=  3500011 ScaDFX=  1.000000  1.000000  1.000000  1.000000
 FoFCou: FMM=F IPFlag=           0 FMFlag=      100000 FMFlg1=           0
         NFxFlg=           0 DoJE=T BraDBF=F KetDBF=T FulRan=T
         wScrn=  0.000000 ICntrl=       500 IOpCl=  0 I1Cent=   200000004 NGrid=           0
         NMat0=    1 NMatS0=      1 NMatT0=    0 NMatD0=    1 NMtDS0=    0 NMtDT0=    0
 Petite list used in FoFCou.
 Harris En= -237.977417768668    
 JPrj=0 DoOrth=F DoCkMO=F.
 Initial guess orbital symmetries:
       Occupied  (A1) (B2) (A1) (A1) (B2) (A1) (B2) (A1) (B1) (A2)
                 (A1) (B2) (B1)
       Virtual   (A1) (B2) (A1) (B1) (B1) (A1) (B2) (A1) (A1) (B1)
                 (B2) (A2) (A1) (A1) (B2) (B1) (A1) (B2) (B1) (A2)
                 (A1) (A1) (B1) (B2) (A1) (B1) (B2) (B1) (A1) (A2)
                 (A1) (A1) (B2) (A1) (B1) (B2) (A2) (A1) (A1) (B1)
                 (B2) (B1) (A2) (A1) (B2) (B1) (B2) (A2) (A1) (B2)
                 (B2) (A1) (A1) (B1) (B1) (B2) (A1) (B1) (A1) (A2)
                 (A1) (B2) (A2) (B1) (A1) (A1) (B2) (A1) (B1) (A2)
                 (A1) (B1) (B2) (A1) (B2) (B1) (A2) (B2) (A1) (A1)
                 (B1) (A2) (B2) (A1) (B1) (B2) (B1) (A2) (A1) (A1)
                 (B2) (A1) (B2) (A1)
 The electronic state of the initial guess is 1-A1.
 Leave Link  401 at Fri Sep  6 11:00:19 2024, MaxMem=  1073741824 cpu:               1.0 elap:               0.2
 (Enter /Users/asuyarger/Applications/G16/g16/l502.exe)
 Keep R1 ints in memory in symmetry-blocked form, NReq=20948951.
 FoFCou: FMM=F IPFlag=           0 FMFlag=           0 FMFlg1=           0
         NFxFlg=           0 DoJE=F BraDBF=F KetDBF=F FulRan=T
         wScrn=  0.000000 ICntrl=       600 IOpCl=  0 I1Cent=           0 NGrid=           0
         NMat0=    1 NMatS0=   5778 NMatT0=    0 NMatD0=    1 NMtDS0=    0 NMtDT0=    0
 Petite list used in FoFCou.
 Closed shell SCF:
 Using DIIS extrapolation, IDIIS=  1040.
 NGot=  1073741824 LenX=  1069461296 LenY=  1069448086
 Requested convergence on RMS density matrix=1.00D-08 within 128 cycles.
 Requested convergence on MAX density matrix=1.00D-06.
 Requested convergence on             energy=1.00D-06.
 No special actions if energy rises.

 Cycle   1  Pass 1  IDiag  1:
 E= -237.926743748399    
 DIIS: error= 8.23D-02 at cycle   1 NSaved=   1.
 NSaved= 1 IEnMin= 1 EnMin= -237.926743748399     IErMin= 1 ErrMin= 8.23D-02
 ErrMax= 8.23D-02  0.00D+00 EMaxC= 1.00D-01 BMatC= 2.61D-01 BMatP= 2.61D-01
 IDIUse=3 WtCom= 1.77D-01 WtEn= 8.23D-01
 Coeff-Com:  0.100D+01
 Coeff-En:   0.100D+01
 Coeff:      0.100D+01
 Gap=     0.609 Goal=   None    Shift=    0.000
 GapD=    0.609 DampG=2.000 DampE=0.500 DampFc=1.0000 IDamp=-1.
 RMSDP=1.37D-03 MaxDP=3.08D-02              OVMax= 4.02D-02

 Cycle   2  Pass 1  IDiag  1:
 E= -237.977501359482     Delta-E=       -0.050757611083 Rises=F Damp=F
 DIIS: error= 5.65D-03 at cycle   2 NSaved=   2.
 NSaved= 2 IEnMin= 2 EnMin= -237.977501359482     IErMin= 2 ErrMin= 5.65D-03
 ErrMax= 5.65D-03  0.00D+00 EMaxC= 1.00D-01 BMatC= 4.75D-03 BMatP= 2.61D-01
 IDIUse=3 WtCom= 9.44D-01 WtEn= 5.65D-02
 Coeff-Com:  0.397D-02 0.996D+00
 Coeff-En:   0.000D+00 0.100D+01
 Coeff:      0.375D-02 0.996D+00
 Gap=     0.589 Goal=   None    Shift=    0.000
 RMSDP=5.16D-04 MaxDP=1.27D-02 DE=-5.08D-02 OVMax= 1.28D-02

 Cycle   3  Pass 1  IDiag  1:
 E= -237.979748860468     Delta-E=       -0.002247500986 Rises=F Damp=F
 DIIS: error= 3.50D-03 at cycle   3 NSaved=   3.
 NSaved= 3 IEnMin= 3 EnMin= -237.979748860468     IErMin= 3 ErrMin= 3.50D-03
 ErrMax= 3.50D-03  0.00D+00 EMaxC= 1.00D-01 BMatC= 1.13D-03 BMatP= 4.75D-03
 IDIUse=3 WtCom= 9.65D-01 WtEn= 3.50D-02
 Coeff-Com: -0.187D-01 0.306D+00 0.712D+00
 Coeff-En:   0.000D+00 0.000D+00 0.100D+01
 Coeff:     -0.181D-01 0.296D+00 0.722D+00
 Gap=     0.579 Goal=   None    Shift=    0.000
 RMSDP=1.41D-04 MaxDP=3.96D-03 DE=-2.25D-03 OVMax= 4.29D-03

 Cycle   4  Pass 1  IDiag  1:
 E= -237.980295953158     Delta-E=       -0.000547092690 Rises=F Damp=F
 DIIS: error= 4.99D-04 at cycle   4 NSaved=   4.
 NSaved= 4 IEnMin= 4 EnMin= -237.980295953158     IErMin= 4 ErrMin= 4.99D-04
 ErrMax= 4.99D-04  0.00D+00 EMaxC= 1.00D-01 BMatC= 2.03D-05 BMatP= 1.13D-03
 IDIUse=3 WtCom= 9.95D-01 WtEn= 4.99D-03
 Coeff-Com: -0.129D-02-0.162D-02 0.792D-01 0.924D+00
 Coeff-En:   0.000D+00 0.000D+00 0.000D+00 0.100D+01
 Coeff:     -0.128D-02-0.161D-02 0.788D-01 0.924D+00
 Gap=     0.578 Goal=   None    Shift=    0.000
 RMSDP=3.51D-05 MaxDP=6.45D-04 DE=-5.47D-04 OVMax= 1.25D-03

 Cycle   5  Pass 1  IDiag  1:
 E= -237.980316979647     Delta-E=       -0.000021026488 Rises=F Damp=F
 DIIS: error= 2.96D-04 at cycle   5 NSaved=   5.
 NSaved= 5 IEnMin= 5 EnMin= -237.980316979647     IErMin= 5 ErrMin= 2.96D-04
 ErrMax= 2.96D-04  0.00D+00 EMaxC= 1.00D-01 BMatC= 2.35D-06 BMatP= 2.03D-05
 IDIUse=3 WtCom= 9.97D-01 WtEn= 2.96D-03
 Coeff-Com:  0.940D-03-0.229D-01-0.495D-01 0.116D+00 0.956D+00
 Coeff-En:   0.000D+00 0.000D+00 0.000D+00 0.000D+00 0.100D+01
 Coeff:      0.937D-03-0.228D-01-0.494D-01 0.116D+00 0.956D+00
 Gap=     0.578 Goal=   None    Shift=    0.000
 RMSDP=1.49D-05 MaxDP=4.37D-04 DE=-2.10D-05 OVMax= 5.65D-04

 Cycle   6  Pass 1  IDiag  1:
 E= -237.980319820466     Delta-E=       -0.000002840819 Rises=F Damp=F
 DIIS: error= 4.43D-05 at cycle   6 NSaved=   6.
 NSaved= 6 IEnMin= 6 EnMin= -237.980319820466     IErMin= 6 ErrMin= 4.43D-05
 ErrMax= 4.43D-05  0.00D+00 EMaxC= 1.00D-01 BMatC= 1.20D-07 BMatP= 2.35D-06
 IDIUse=1 WtCom= 1.00D+00 WtEn= 0.00D+00
 Coeff-Com:  0.814D-04 0.919D-03-0.216D-02-0.668D-01-0.652D-01 0.113D+01
 Coeff:      0.814D-04 0.919D-03-0.216D-02-0.668D-01-0.652D-01 0.113D+01
 Gap=     0.578 Goal=   None    Shift=    0.000
 RMSDP=5.10D-06 MaxDP=7.36D-05 DE=-2.84D-06 OVMax= 2.44D-04

 Cycle   7  Pass 1  IDiag  1:
 E= -237.980320081488     Delta-E=       -0.000000261022 Rises=F Damp=F
 DIIS: error= 1.09D-05 at cycle   7 NSaved=   7.
 NSaved= 7 IEnMin= 7 EnMin= -237.980320081488     IErMin= 7 ErrMin= 1.09D-05
 ErrMax= 1.09D-05  0.00D+00 EMaxC= 1.00D-01 BMatC= 9.68D-09 BMatP= 1.20D-07
 IDIUse=1 WtCom= 1.00D+00 WtEn= 0.00D+00
 Coeff-Com: -0.835D-04 0.143D-02 0.431D-02 0.513D-02-0.372D-01-0.331D+00
 Coeff-Com:  0.136D+01
 Coeff:     -0.835D-04 0.143D-02 0.431D-02 0.513D-02-0.372D-01-0.331D+00
 Coeff:      0.136D+01
 Gap=     0.578 Goal=   None    Shift=    0.000
 RMSDP=1.80D-06 MaxDP=2.37D-05 DE=-2.61D-07 OVMax= 8.03D-05

 Cycle   8  Pass 1  IDiag  1:
 E= -237.980320103541     Delta-E=       -0.000000022053 Rises=F Damp=F
 DIIS: error= 1.05D-06 at cycle   8 NSaved=   8.
 NSaved= 8 IEnMin= 8 EnMin= -237.980320103541     IErMin= 8 ErrMin= 1.05D-06
 ErrMax= 1.05D-06  0.00D+00 EMaxC= 1.00D-01 BMatC= 1.44D-10 BMatP= 9.68D-09
 IDIUse=1 WtCom= 1.00D+00 WtEn= 0.00D+00
 Coeff-Com:  0.762D-05-0.206D-03-0.580D-03 0.826D-03 0.852D-02 0.160D-01
 Coeff-Com: -0.197D+00 0.117D+01
 Coeff:      0.762D-05-0.206D-03-0.580D-03 0.826D-03 0.852D-02 0.160D-01
 Coeff:     -0.197D+00 0.117D+01
 Gap=     0.578 Goal=   None    Shift=    0.000
 RMSDP=1.80D-07 MaxDP=3.86D-06 DE=-2.21D-08 OVMax= 6.68D-06

 Cycle   9  Pass 1  IDiag  1:
 E= -237.980320103836     Delta-E=       -0.000000000295 Rises=F Damp=F
 DIIS: error= 2.13D-07 at cycle   9 NSaved=   9.
 NSaved= 9 IEnMin= 9 EnMin= -237.980320103836     IErMin= 9 ErrMin= 2.13D-07
 ErrMax= 2.13D-07  0.00D+00 EMaxC= 1.00D-01 BMatC= 4.35D-12 BMatP= 1.44D-10
 IDIUse=1 WtCom= 1.00D+00 WtEn= 0.00D+00
 Coeff-Com:  0.217D-05-0.333D-04-0.107D-03-0.280D-03 0.657D-03 0.111D-01
 Coeff-Com: -0.356D-01-0.765D-01 0.110D+01
 Coeff:      0.217D-05-0.333D-04-0.107D-03-0.280D-03 0.657D-03 0.111D-01
 Coeff:     -0.356D-01-0.765D-01 0.110D+01
 Gap=     0.578 Goal=   None    Shift=    0.000
 RMSDP=3.10D-08 MaxDP=5.25D-07 DE=-2.95D-10 OVMax= 1.15D-06

 Cycle  10  Pass 1  IDiag  1:
 E= -237.980320103845     Delta-E=       -0.000000000009 Rises=F Damp=F
 DIIS: error= 3.86D-08 at cycle  10 NSaved=  10.
 NSaved=10 IEnMin=10 EnMin= -237.980320103845     IErMin=10 ErrMin= 3.86D-08
 ErrMax= 3.86D-08  0.00D+00 EMaxC= 1.00D-01 BMatC= 1.06D-13 BMatP= 4.35D-12
 IDIUse=1 WtCom= 1.00D+00 WtEn= 0.00D+00
 Coeff-Com: -0.439D-06 0.957D-05 0.276D-04 0.910D-05-0.306D-03-0.177D-02
 Coeff-Com:  0.898D-02-0.124D-01-0.175D+00 0.118D+01
 Coeff:     -0.439D-06 0.957D-05 0.276D-04 0.910D-05-0.306D-03-0.177D-02
 Coeff:      0.898D-02-0.124D-01-0.175D+00 0.118D+01
 Gap=     0.578 Goal=   None    Shift=    0.000
 RMSDP=7.23D-09 MaxDP=1.37D-07 DE=-9.27D-12 OVMax= 1.67D-07

 SCF Done:  E(RHF) =  -237.980320104     A.U. after   10 cycles
            NFock= 10  Conv=0.72D-08     -V/T= 2.0005
 KE= 2.378603823313D+02 PE=-7.228930033603D+02 EE= 1.694282040262D+02
 Leave Link  502 at Fri Sep  6 11:00:19 2024, MaxMem=  1073741824 cpu:               2.2 elap:               0.3
 (Enter /Users/asuyarger/Applications/G16/g16/l601.exe)
 Copying SCF densities to generalized density rwf, IOpCl= 0 IROHF=0.

 **********************************************************************

            Population analysis using the SCF density.

 **********************************************************************

 Orbital symmetries:
       Occupied  (B2) (A1) (A1) (A1) (B2) (A1) (B1) (A1) (B2) (A2)
                 (B2) (A1) (B1)
       Virtual   (A1) (B1) (B2) (A1) (B1) (A1) (A1) (B1) (B2) (A1)
                 (B2) (A2) (A1) (A1) (B2) (B1) (A1) (B2) (A2) (B1)
                 (A1) (A1) (B1) (B2) (B1) (A1) (B2) (B1) (A1) (A1)
                 (A2) (A1) (B2) (A1) (B1) (B2) (A2) (A1) (A1) (B1)
                 (B2) (B1) (A2) (B2) (A1) (B1) (B2) (A1) (A2) (B2)
                 (B2) (A1) (A1) (B1) (B1) (B2) (B1) (A1) (A2) (A1)
                 (A1) (B2) (A2) (A1) (B1) (A1) (B1) (A1) (B2) (A2)
                 (A1) (B1) (B2) (A1) (B2) (B1) (B2) (A2) (A1) (A1)
                 (B1) (A2) (B2) (A1) (B1) (B2) (B1) (A2) (A1) (A1)
                 (B2) (A1) (B2) (A1)
 The electronic state is 1-A1.
 Alpha  occ. eigenvalues --  -26.31671 -26.31669 -11.40347  -1.66715  -1.60684
 Alpha  occ. eigenvalues --   -0.97971  -0.78282  -0.77861  -0.76237  -0.67050
 Alpha  occ. eigenvalues --   -0.63694  -0.62833  -0.53795
 Alpha virt. eigenvalues --    0.04050   0.06439   0.09683   0.09995   0.15118
 Alpha virt. eigenvalues --    0.16739   0.24961   0.26492   0.31250   0.32405
 Alpha virt. eigenvalues --    0.32879   0.34392   0.37043   0.37336   0.42890
 Alpha virt. eigenvalues --    0.45007   0.50741   0.51005   0.51746   0.51938
 Alpha virt. eigenvalues --    0.56726   0.61585   0.63403   0.72056   0.79268
 Alpha virt. eigenvalues --    0.82675   0.88658   0.93154   0.97132   1.11655
 Alpha virt. eigenvalues --    1.13796   1.16836   1.36179   1.39470   1.40100
 Alpha virt. eigenvalues --    1.58310   1.59250   1.59462   1.67444   1.69747
 Alpha virt. eigenvalues --    1.72483   2.00036   2.06260   2.07166   2.07837
 Alpha virt. eigenvalues --    2.22709   2.27028   2.29818   2.30296   2.40830
 Alpha virt. eigenvalues --    2.49583   2.62459   2.66245   2.69692   2.76133
 Alpha virt. eigenvalues --    2.94821   3.06105   3.06345   3.15572   3.17650
 Alpha virt. eigenvalues --    3.33234   3.69266   3.74797   3.77422   3.79596
 Alpha virt. eigenvalues --    3.79709   4.54427   4.57043   4.59043   6.91905
 Alpha virt. eigenvalues --    6.92856   6.99151   6.99647   7.16934   7.31392
 Alpha virt. eigenvalues --    8.69530   8.73468   8.73972   8.75858   8.98520
 Alpha virt. eigenvalues --    9.07308   9.67834   9.71391   9.78171   9.79843
 Alpha virt. eigenvalues --    9.82595   9.97255  10.07806  10.16343  10.31484
 Alpha virt. eigenvalues --   10.37681  25.13282  68.80983  68.83206
     Molecular Orbital Coefficients:
                           1         2         3         4         5
                        (B2)--O   (A1)--O   (A1)--O   (A1)--O   (B2)--O
     Eigenvalues --   -26.31671 -26.31669 -11.40347  -1.66715  -1.60684
   1 1   C  1S          0.00000  -0.00000   0.56360  -0.04091   0.00000
   2        2S          0.00000  -0.00005   0.46660  -0.06615   0.00000
   3        2PX         0.00000   0.00000   0.00000   0.00000   0.00000
   4        2PY        -0.00000   0.00000   0.00000   0.00000   0.05555
   5        2PZ         0.00000  -0.00000  -0.00197  -0.03430   0.00000
   6        3S          0.00000   0.00014   0.00382   0.16964   0.00000
   7        3PX         0.00000   0.00000   0.00000   0.00000   0.00000
   8        3PY         0.00042   0.00000   0.00000   0.00000   0.06885
   9        3PZ         0.00000  -0.00031   0.00191  -0.04867   0.00000
  10        4S          0.00000   0.00031  -0.00112  -0.17083   0.00000
  11        4PX         0.00000   0.00000   0.00000   0.00000   0.00000
  12        4PY         0.00076   0.00000   0.00000   0.00000  -0.07067
  13        4PZ         0.00000  -0.00057   0.00156   0.04098   0.00000
  14        5S          0.00000  -0.00088  -0.00070   0.01890   0.00000
  15        5PX         0.00000   0.00000   0.00000   0.00000   0.00000
  16        5PY        -0.00011   0.00000   0.00000   0.00000   0.00584
  17        5PZ         0.00000  -0.00002  -0.00010  -0.00189   0.00000
  18        6D 0        0.00000   0.00001  -0.00002   0.00035   0.00000
  19        6D+1        0.00000   0.00000   0.00000   0.00000   0.00000
  20        6D-1       -0.00009   0.00000   0.00000   0.00000  -0.01910
  21        6D+2        0.00000  -0.00006   0.00015  -0.01217   0.00000
  22        6D-2        0.00000   0.00000   0.00000   0.00000   0.00000
  23        7D 0        0.00000  -0.00001  -0.00009   0.00340   0.00000
  24        7D+1        0.00000   0.00000   0.00000   0.00000   0.00000
  25        7D-1       -0.00027   0.00000   0.00000   0.00000  -0.00119
  26        7D+2        0.00000  -0.00022   0.00096  -0.00016   0.00000
  27        7D-2        0.00000   0.00000   0.00000   0.00000   0.00000
  28 2   H  1S          0.00000   0.00001   0.00040   0.01004   0.00000
  29        2S          0.00000   0.00012  -0.00097   0.03484   0.00000
  30        3S          0.00000   0.00023  -0.00041   0.03039   0.00000
  31        4S          0.00000   0.00020   0.00020  -0.00847   0.00000
  32        5PX         0.00000  -0.00000   0.00009   0.00022   0.00000
  33        5PY         0.00000   0.00000   0.00000   0.00000   0.00072
  34        5PZ         0.00000   0.00000  -0.00006  -0.00055   0.00000
  35        6PX         0.00000   0.00003  -0.00019   0.00408   0.00000
  36        6PY        -0.00001   0.00000   0.00000   0.00000  -0.00177
  37        6PZ         0.00000  -0.00001   0.00006  -0.00226   0.00000
  38        7PX         0.00000   0.00007  -0.00039   0.00876   0.00000
  39        7PY        -0.00015   0.00000   0.00000   0.00000   0.01951
  40        7PZ         0.00000   0.00005   0.00024  -0.01909   0.00000
  41 3   H  1S          0.00000   0.00001   0.00040   0.01004   0.00000
  42        2S          0.00000   0.00012  -0.00097   0.03484   0.00000
  43        3S          0.00000   0.00023  -0.00041   0.03039   0.00000
  44        4S          0.00000   0.00020   0.00020  -0.00847   0.00000
  45        5PX         0.00000   0.00000  -0.00009  -0.00022   0.00000
  46        5PY         0.00000   0.00000   0.00000   0.00000   0.00072
  47        5PZ         0.00000   0.00000  -0.00006  -0.00055   0.00000
  48        6PX         0.00000  -0.00003   0.00019  -0.00408   0.00000
  49        6PY        -0.00001   0.00000   0.00000   0.00000  -0.00177
  50        6PZ         0.00000  -0.00001   0.00006  -0.00226   0.00000
  51        7PX         0.00000  -0.00007   0.00039  -0.00876   0.00000
  52        7PY        -0.00015   0.00000   0.00000   0.00000   0.01951
  53        7PZ         0.00000   0.00005   0.00024  -0.01909   0.00000
  54 4   F  1S          0.38726   0.38726  -0.00007  -0.08160  -0.08703
  55        2S          0.33480   0.33480  -0.00012  -0.13667  -0.14599
  56        2PX         0.00000   0.00000   0.00000   0.00000   0.00000
  57        2PY        -0.00065  -0.00064  -0.00011  -0.02076  -0.01079
  58        2PZ         0.00046   0.00046   0.00008   0.01169   0.01138
  59        3S          0.00446   0.00445   0.00020   0.39583   0.42623
  60        3PX         0.00000   0.00000   0.00000   0.00000   0.00000
  61        3PY         0.00022   0.00022  -0.00042  -0.03802  -0.02285
  62        3PZ        -0.00016  -0.00016   0.00033   0.02246   0.02190
  63        4S         -0.00102  -0.00094   0.00114   0.35107   0.36885
  64        4PX         0.00000   0.00000   0.00000   0.00000   0.00000
  65        4PY         0.00011   0.00012  -0.00064  -0.04509  -0.02770
  66        4PZ        -0.00013  -0.00002   0.00028   0.02738   0.02571
  67        5S          0.00024   0.00035   0.00099   0.00941  -0.00813
  68        5PX         0.00000   0.00000   0.00000   0.00000   0.00000
  69        5PY        -0.00003   0.00006  -0.00025  -0.00511   0.00935
  70        5PZ        -0.00003   0.00000   0.00021  -0.00322   0.00220
  71        6D 0       -0.00000  -0.00000   0.00001  -0.00020   0.00017
  72        6D+1        0.00000   0.00000   0.00000   0.00000   0.00000
  73        6D-1        0.00000   0.00001  -0.00007  -0.00095  -0.00097
  74        6D+2        0.00001   0.00001  -0.00003  -0.00097  -0.00037
  75        6D-2        0.00000   0.00000   0.00000   0.00000   0.00000
  76        7D 0       -0.00001   0.00000  -0.00004  -0.00026   0.00036
  77        7D+1        0.00000   0.00000   0.00000   0.00000   0.00000
  78        7D-1        0.00012   0.00008  -0.00013  -0.00980  -0.00832
  79        7D+2        0.00007   0.00008  -0.00020  -0.00705  -0.00595
  80        7D-2        0.00000   0.00000   0.00000   0.00000   0.00000
  81 5   F  1S         -0.38726   0.38726  -0.00007  -0.08160   0.08703
  82        2S         -0.33480   0.33480  -0.00012  -0.13667   0.14599
  83        2PX         0.00000   0.00000   0.00000   0.00000   0.00000
  84        2PY        -0.00065   0.00064   0.00011   0.02076  -0.01079
  85        2PZ        -0.00046   0.00046   0.00008   0.01169  -0.01138
  86        3S         -0.00446   0.00445   0.00020   0.39583  -0.42623
  87        3PX         0.00000   0.00000   0.00000   0.00000   0.00000
  88        3PY         0.00022  -0.00022   0.00042   0.03802  -0.02285
  89        3PZ         0.00016  -0.00016   0.00033   0.02246  -0.02190
  90        4S          0.00102  -0.00094   0.00114   0.35107  -0.36885
  91        4PX         0.00000   0.00000   0.00000   0.00000   0.00000
  92        4PY         0.00011  -0.00012   0.00064   0.04509  -0.02770
  93        4PZ         0.00013  -0.00002   0.00028   0.02738  -0.02571
  94        5S         -0.00024   0.00035   0.00099   0.00941   0.00813
  95        5PX         0.00000   0.00000   0.00000   0.00000   0.00000
  96        5PY        -0.00003  -0.00006   0.00025   0.00511   0.00935
  97        5PZ         0.00003   0.00000   0.00021  -0.00322  -0.00220
  98        6D 0        0.00000  -0.00000   0.00001  -0.00020  -0.00017
  99        6D+1        0.00000   0.00000   0.00000   0.00000   0.00000
 100        6D-1        0.00000  -0.00001   0.00007   0.00095  -0.00097
 101        6D+2       -0.00001   0.00001  -0.00003  -0.00097   0.00037
 102        6D-2        0.00000   0.00000   0.00000   0.00000   0.00000
 103        7D 0        0.00001   0.00000  -0.00004  -0.00026  -0.00036
 104        7D+1        0.00000   0.00000   0.00000   0.00000   0.00000
 105        7D-1        0.00012  -0.00008   0.00013   0.00980  -0.00832
 106        7D+2       -0.00007   0.00008  -0.00020  -0.00705   0.00595
 107        7D-2        0.00000   0.00000   0.00000   0.00000   0.00000
                           6         7         8         9        10
                        (A1)--O   (B1)--O   (A1)--O   (B2)--O   (A2)--O
     Eigenvalues --    -0.97971  -0.78282  -0.77861  -0.76237  -0.67050
   1 1   C  1S         -0.09204   0.00000  -0.00611   0.00000   0.00000
   2        2S         -0.15430   0.00000  -0.00948   0.00000   0.00000
   3        2PX         0.00000   0.14268   0.00000   0.00000   0.00000
   4        2PY         0.00000   0.00000   0.00000   0.13378   0.00000
   5        2PZ         0.03041   0.00000   0.13011   0.00000   0.00000
   6        3S          0.42296   0.00000   0.01944   0.00000   0.00000
   7        3PX         0.00000   0.22992   0.00000   0.00000   0.00000
   8        3PY         0.00000   0.00000   0.00000   0.21815   0.00000
   9        3PZ         0.02870   0.00000   0.21503   0.00000   0.00000
  10        4S          0.09389   0.00000   0.11557   0.00000   0.00000
  11        4PX         0.00000   0.09700   0.00000   0.00000   0.00000
  12        4PY         0.00000   0.00000   0.00000   0.04398   0.00000
  13        4PZ        -0.00427   0.00000   0.06099   0.00000   0.00000
  14        5S         -0.07233   0.00000   0.04960   0.00000   0.00000
  15        5PX         0.00000   0.04636   0.00000   0.00000   0.00000
  16        5PY         0.00000   0.00000   0.00000  -0.00570   0.00000
  17        5PZ        -0.00461   0.00000   0.00614   0.00000   0.00000
  18        6D 0       -0.00115   0.00000  -0.01165   0.00000   0.00000
  19        6D+1        0.00000   0.00351   0.00000   0.00000   0.00000
  20        6D-1        0.00000   0.00000   0.00000  -0.02433   0.00000
  21        6D+2        0.00162   0.00000   0.01106   0.00000   0.00000
  22        6D-2        0.00000   0.00000   0.00000   0.00000   0.01579
  23        7D 0        0.00039   0.00000  -0.02164   0.00000   0.00000
  24        7D+1        0.00000   0.00242   0.00000   0.00000   0.00000
  25        7D-1        0.00000   0.00000   0.00000  -0.02219   0.00000
  26        7D+2       -0.00372   0.00000   0.00565   0.00000   0.00000
  27        7D-2        0.00000   0.00000   0.00000   0.00000   0.03399
  28 2   H  1S          0.08518  -0.07874   0.06086   0.00000   0.00000
  29        2S          0.13776  -0.10639   0.07254   0.00000   0.00000
  30        3S          0.06600  -0.02655  -0.00501   0.00000   0.00000
  31        4S          0.01550   0.04476  -0.01005   0.00000   0.00000
  32        5PX         0.00248  -0.00211   0.00222   0.00000   0.00000
  33        5PY         0.00000   0.00000   0.00000   0.00139  -0.00118
  34        5PZ        -0.00166   0.00268  -0.00091   0.00000   0.00000
  35        6PX         0.01429  -0.00267   0.00492   0.00000   0.00000
  36        6PY         0.00000   0.00000   0.00000   0.00028   0.00423
  37        6PZ        -0.00867   0.00353   0.00098   0.00000   0.00000
  38        7PX         0.02054  -0.00733   0.00268   0.00000   0.00000
  39        7PY         0.00000   0.00000   0.00000   0.01450  -0.00107
  40        7PZ        -0.01538   0.00677   0.00917   0.00000   0.00000
  41 3   H  1S          0.08518   0.07874   0.06086   0.00000   0.00000
  42        2S          0.13776   0.10639   0.07254   0.00000   0.00000
  43        3S          0.06600   0.02655  -0.00501   0.00000   0.00000
  44        4S          0.01550  -0.04476  -0.01005   0.00000   0.00000
  45        5PX        -0.00248  -0.00211  -0.00222   0.00000   0.00000
  46        5PY         0.00000   0.00000   0.00000   0.00139   0.00118
  47        5PZ        -0.00166  -0.00268  -0.00091   0.00000   0.00000
  48        6PX        -0.01429  -0.00267  -0.00492   0.00000   0.00000
  49        6PY         0.00000   0.00000   0.00000   0.00028  -0.00423
  50        6PZ        -0.00867  -0.00353   0.00098   0.00000   0.00000
  51        7PX        -0.02054  -0.00733  -0.00268   0.00000   0.00000
  52        7PY         0.00000   0.00000   0.00000   0.01450   0.00107
  53        7PZ        -0.01538  -0.00677   0.00917   0.00000   0.00000
  54 4   F  1S          0.03189   0.00000  -0.01021   0.01749   0.00000
  55        2S          0.05414   0.00000  -0.01737   0.02975   0.00000
  56        2PX         0.00000   0.15749   0.00000   0.00000   0.21982
  57        2PY        -0.07892   0.00000   0.15961  -0.10082   0.00000
  58        2PZ         0.06796   0.00000   0.06131   0.15726   0.00000
  59        3S         -0.16892   0.00000   0.05662  -0.09701   0.00000
  60        3PX         0.00000   0.23989   0.00000   0.00000   0.33466
  61        3PY        -0.12190   0.00000   0.24573  -0.15780   0.00000
  62        3PZ         0.10460   0.00000   0.09277   0.24303   0.00000
  63        4S         -0.16290   0.00000   0.05166  -0.10573   0.00000
  64        4PX         0.00000   0.20168   0.00000   0.00000   0.28977
  65        4PY        -0.08814   0.00000   0.20060  -0.11710   0.00000
  66        4PZ         0.07700   0.00000   0.07638   0.19422   0.00000
  67        5S         -0.01541   0.00000  -0.00450  -0.03209   0.00000
  68        5PX         0.00000  -0.00758   0.00000   0.00000   0.02613
  69        5PY         0.00637   0.00000   0.01083   0.00064   0.00000
  70        5PZ        -0.00798   0.00000   0.00434   0.00556   0.00000
  71        6D 0        0.00021   0.00000   0.00189   0.00084   0.00000
  72        6D+1        0.00000   0.00143   0.00000   0.00000   0.00110
  73        6D-1       -0.00262   0.00000   0.00111  -0.00398   0.00000
  74        6D+2       -0.00174   0.00000   0.00272  -0.00193   0.00000
  75        6D-2        0.00000  -0.00200   0.00000   0.00000  -0.00122
  76        7D 0        0.00139   0.00000   0.01026   0.00636   0.00000
  77        7D+1        0.00000   0.00885   0.00000   0.00000   0.00849
  78        7D-1       -0.01109   0.00000   0.00400  -0.01582   0.00000
  79        7D+2       -0.00611   0.00000   0.01109  -0.00730   0.00000
  80        7D-2        0.00000  -0.01284   0.00000   0.00000  -0.01175
  81 5   F  1S          0.03189   0.00000  -0.01021  -0.01749   0.00000
  82        2S          0.05414   0.00000  -0.01737  -0.02975   0.00000
  83        2PX         0.00000   0.15749   0.00000   0.00000  -0.21982
  84        2PY         0.07892   0.00000  -0.15961  -0.10082   0.00000
  85        2PZ         0.06796   0.00000   0.06131  -0.15726   0.00000
  86        3S         -0.16892   0.00000   0.05662   0.09701   0.00000
  87        3PX         0.00000   0.23989   0.00000   0.00000  -0.33466
  88        3PY         0.12190   0.00000  -0.24573  -0.15780   0.00000
  89        3PZ         0.10460   0.00000   0.09277  -0.24303   0.00000
  90        4S         -0.16290   0.00000   0.05166   0.10573   0.00000
  91        4PX         0.00000   0.20168   0.00000   0.00000  -0.28977
  92        4PY         0.08814   0.00000  -0.20060  -0.11710   0.00000
  93        4PZ         0.07700   0.00000   0.07638  -0.19422   0.00000
  94        5S         -0.01541   0.00000  -0.00450   0.03209   0.00000
  95        5PX         0.00000  -0.00758   0.00000   0.00000  -0.02613
  96        5PY        -0.00637   0.00000  -0.01083   0.00064   0.00000
  97        5PZ        -0.00798   0.00000   0.00434  -0.00556   0.00000
  98        6D 0        0.00021   0.00000   0.00189  -0.00084   0.00000
  99        6D+1        0.00000   0.00143   0.00000   0.00000  -0.00110
 100        6D-1        0.00262   0.00000  -0.00111  -0.00398   0.00000
 101        6D+2       -0.00174   0.00000   0.00272   0.00193   0.00000
 102        6D-2        0.00000   0.00200   0.00000   0.00000  -0.00122
 103        7D 0        0.00139   0.00000   0.01026  -0.00636   0.00000
 104        7D+1        0.00000   0.00885   0.00000   0.00000  -0.00849
 105        7D-1        0.01109   0.00000  -0.00400  -0.01582   0.00000
 106        7D+2       -0.00611   0.00000   0.01109   0.00730   0.00000
 107        7D-2        0.00000   0.01284   0.00000   0.00000  -0.01175
                          11        12        13        14        15
                        (B2)--O   (A1)--O   (B1)--O   (A1)--V   (B1)--V
     Eigenvalues --    -0.63694  -0.62833  -0.53795   0.04050   0.06439
   1 1   C  1S          0.00000   0.01666   0.00000  -0.01380   0.00000
   2        2S          0.00000   0.02731   0.00000  -0.02366   0.00000
   3        2PX         0.00000   0.00000   0.16181   0.00000   0.04417
   4        2PY        -0.03053   0.00000   0.00000   0.00000   0.00000
   5        2PZ         0.00000  -0.10947   0.00000   0.03204   0.00000
   6        3S          0.00000  -0.06987   0.00000   0.06793   0.00000
   7        3PX         0.00000   0.00000   0.23346   0.00000   0.04695
   8        3PY        -0.03985   0.00000   0.00000   0.00000   0.00000
   9        3PZ         0.00000  -0.15821   0.00000   0.04640   0.00000
  10        4S          0.00000  -0.18165   0.00000   0.14051   0.00000
  11        4PX         0.00000   0.00000   0.13354   0.00000  -0.53584
  12        4PY        -0.01037   0.00000   0.00000   0.00000   0.00000
  13        4PZ         0.00000  -0.06954   0.00000  -0.24317   0.00000
  14        5S          0.00000  -0.02024   0.00000   5.13168   0.00000
  15        5PX         0.00000   0.00000  -0.03886   0.00000   1.54238
  16        5PY         0.01938   0.00000   0.00000   0.00000   0.00000
  17        5PZ         0.00000   0.00904   0.00000   0.70359   0.00000
  18        6D 0        0.00000  -0.00996   0.00000  -0.00048   0.00000
  19        6D+1        0.00000   0.00000   0.02490   0.00000   0.00347
  20        6D-1        0.01899   0.00000   0.00000   0.00000   0.00000
  21        6D+2        0.00000  -0.02687   0.00000   0.00264   0.00000
  22        6D-2        0.00000   0.00000   0.00000   0.00000   0.00000
  23        7D 0        0.00000  -0.02693   0.00000   0.00382   0.00000
  24        7D+1        0.00000   0.00000   0.03123   0.00000  -0.07404
  25        7D-1        0.02696   0.00000   0.00000   0.00000   0.00000
  26        7D+2        0.00000  -0.03420   0.00000  -0.04389   0.00000
  27        7D-2        0.00000   0.00000   0.00000   0.00000   0.00000
  28 2   H  1S          0.00000  -0.08028  -0.12892   0.00478  -0.00680
  29        2S          0.00000  -0.10963  -0.22055   0.07314  -0.13221
  30        3S          0.00000  -0.01298  -0.10661  -0.05417  -0.87390
  31        4S          0.00000  -0.00462  -0.04690  -2.70715   4.28444
  32        5PX         0.00000  -0.00226  -0.00240   0.00044  -0.00074
  33        5PY         0.00032   0.00000   0.00000   0.00000   0.00000
  34        5PZ         0.00000   0.00038   0.00190  -0.00037   0.00061
  35        6PX         0.00000  -0.00911  -0.01198   0.01021  -0.00800
  36        6PY        -0.00120   0.00000   0.00000   0.00000   0.00000
  37        6PZ         0.00000   0.00551   0.01452  -0.00510   0.00622
  38        7PX         0.00000   0.00239  -0.00806   0.04604  -0.17317
  39        7PY        -0.00262   0.00000   0.00000   0.00000   0.00000
  40        7PZ         0.00000  -0.00649   0.00352  -0.02958   0.13820
  41 3   H  1S          0.00000  -0.08028   0.12892   0.00478   0.00680
  42        2S          0.00000  -0.10963   0.22055   0.07314   0.13221
  43        3S          0.00000  -0.01298   0.10661  -0.05417   0.87390
  44        4S          0.00000  -0.00462   0.04690  -2.70715  -4.28444
  45        5PX         0.00000   0.00226  -0.00240  -0.00044  -0.00074
  46        5PY         0.00032   0.00000   0.00000   0.00000   0.00000
  47        5PZ         0.00000   0.00038  -0.00190  -0.00037  -0.00061
  48        6PX         0.00000   0.00911  -0.01198  -0.01021  -0.00800
  49        6PY        -0.00120   0.00000   0.00000   0.00000   0.00000
  50        6PZ         0.00000   0.00551  -0.01452  -0.00510  -0.00622
  51        7PX         0.00000  -0.00239  -0.00806  -0.04604  -0.17317
  52        7PY        -0.00262   0.00000   0.00000   0.00000   0.00000
  53        7PZ         0.00000  -0.00649  -0.00352  -0.02958  -0.13820
  54 4   F  1S         -0.00061   0.00085   0.00000  -0.00219   0.00000
  55        2S         -0.00103   0.00144   0.00000  -0.00364   0.00000
  56        2PX         0.00000   0.00000  -0.15079   0.00000   0.00102
  57        2PY         0.18364   0.00493   0.00000   0.00792   0.00000
  58        2PZ         0.12732   0.18817   0.00000  -0.00752   0.00000
  59        3S          0.00605  -0.00864   0.00000   0.00984   0.00000
  60        3PX         0.00000   0.00000  -0.22810   0.00000  -0.00355
  61        3PY         0.28184   0.00359   0.00000   0.00979   0.00000
  62        3PZ         0.19086   0.28908   0.00000  -0.01312   0.00000
  63        4S          0.00273   0.00492   0.00000   0.02795   0.00000
  64        4PX         0.00000   0.00000  -0.21709   0.00000   0.02289
  65        4PY         0.25097   0.00079   0.00000   0.04233   0.00000
  66        4PZ         0.17829   0.25509   0.00000  -0.01804   0.00000
  67        5S          0.02723   0.01173   0.00000  -0.50957   0.00000
  68        5PX         0.00000   0.00000  -0.03689   0.00000  -0.05398
  69        5PY         0.00032   0.00574   0.00000   0.11757   0.00000
  70        5PZ         0.01846   0.02832   0.00000  -0.10653   0.00000
  71        6D 0        0.00074   0.00065   0.00000   0.00021   0.00000
  72        6D+1        0.00000   0.00000   0.00048   0.00000   0.00028
  73        6D-1        0.00101  -0.00184   0.00000  -0.00037   0.00000
  74        6D+2        0.00108  -0.00078   0.00000  -0.00027   0.00000
  75        6D-2        0.00000   0.00000  -0.00027   0.00000  -0.00046
  76        7D 0        0.01356   0.00614   0.00000   0.00135   0.00000
  77        7D+1        0.00000   0.00000  -0.00135   0.00000   0.00109
  78        7D-1        0.00325  -0.01259   0.00000   0.00046   0.00000
  79        7D+2        0.01224  -0.00361   0.00000   0.00214   0.00000
  80        7D-2        0.00000   0.00000   0.00386   0.00000  -0.00187
  81 5   F  1S          0.00061   0.00085   0.00000  -0.00219   0.00000
  82        2S          0.00103   0.00144   0.00000  -0.00364   0.00000
  83        2PX         0.00000   0.00000  -0.15079   0.00000   0.00102
  84        2PY         0.18364  -0.00493   0.00000  -0.00792   0.00000
  85        2PZ        -0.12732   0.18817   0.00000  -0.00752   0.00000
  86        3S         -0.00605  -0.00864   0.00000   0.00984   0.00000
  87        3PX         0.00000   0.00000  -0.22810   0.00000  -0.00355
  88        3PY         0.28184  -0.00359   0.00000  -0.00979   0.00000
  89        3PZ        -0.19086   0.28908   0.00000  -0.01312   0.00000
  90        4S         -0.00273   0.00492   0.00000   0.02795   0.00000
  91        4PX         0.00000   0.00000  -0.21709   0.00000   0.02289
  92        4PY         0.25097  -0.00079   0.00000  -0.04233   0.00000
  93        4PZ        -0.17829   0.25509   0.00000  -0.01804   0.00000
  94        5S         -0.02723   0.01173   0.00000  -0.50957   0.00000
  95        5PX         0.00000   0.00000  -0.03689   0.00000  -0.05398
  96        5PY         0.00032  -0.00574   0.00000  -0.11757   0.00000
  97        5PZ        -0.01846   0.02832   0.00000  -0.10653   0.00000
  98        6D 0       -0.00074   0.00065   0.00000   0.00021   0.00000
  99        6D+1        0.00000   0.00000   0.00048   0.00000   0.00028
 100        6D-1        0.00101   0.00184   0.00000   0.00037   0.00000
 101        6D+2       -0.00108  -0.00078   0.00000  -0.00027   0.00000
 102        6D-2        0.00000   0.00000   0.00027   0.00000   0.00046
 103        7D 0       -0.01356   0.00614   0.00000   0.00135   0.00000
 104        7D+1        0.00000   0.00000  -0.00135   0.00000   0.00109
 105        7D-1        0.00325   0.01259   0.00000  -0.00046   0.00000
 106        7D+2       -0.01224  -0.00361   0.00000   0.00214   0.00000
 107        7D-2        0.00000   0.00000  -0.00386   0.00000   0.00187
                          16        17        18        19        20
                        (B2)--V   (A1)--V   (B1)--V   (A1)--V   (A1)--V
     Eigenvalues --     0.09683   0.09995   0.15118   0.16739   0.24961
   1 1   C  1S          0.00000   0.00869   0.00000   0.01728  -0.03756
   2        2S          0.00000   0.01488   0.00000   0.03398  -0.06256
   3        2PX         0.00000   0.00000  -0.01824   0.00000   0.00000
   4        2PY         0.02603   0.00000   0.00000   0.00000   0.00000
   5        2PZ         0.00000   0.01143   0.00000  -0.04763   0.06303
   6        3S          0.00000  -0.01838   0.00000  -0.23158   0.02972
   7        3PX         0.00000   0.00000  -0.03559   0.00000   0.00000
   8        3PY         0.04770   0.00000   0.00000   0.00000   0.00000
   9        3PZ         0.00000   0.01555   0.00000  -0.04858   0.16886
  10        4S          0.00000  -0.13733   0.00000   3.27760   6.12789
  11        4PX         0.00000   0.00000   0.83164   0.00000   0.00000
  12        4PY         0.62329   0.00000   0.00000   0.00000   0.00000
  13        4PZ         0.00000   0.64367   0.00000   0.04344   2.31750
  14        5S          0.00000   0.73858   0.00000  15.18141   4.48619
  15        5PX         0.00000   0.00000   5.35365   0.00000   0.00000
  16        5PY         1.65822   0.00000   0.00000   0.00000   0.00000
  17        5PZ         0.00000   1.93915   0.00000   2.52304   1.20044
  18        6D 0        0.00000   0.00113   0.00000   0.00073   0.00302
  19        6D+1        0.00000   0.00000  -0.00550   0.00000   0.00000
  20        6D-1        0.00600   0.00000   0.00000   0.00000   0.00000
  21        6D+2        0.00000  -0.00640   0.00000  -0.00305  -0.01465
  22        6D-2        0.00000   0.00000   0.00000   0.00000   0.00000
  23        7D 0        0.00000   0.04810   0.00000   0.01870   0.01471
  24        7D+1        0.00000   0.00000   0.04510   0.00000   0.00000
  25        7D-1       -0.01903   0.00000   0.00000   0.00000   0.00000
  26        7D+2        0.00000   0.02679   0.00000  -0.01435   0.20518
  27        7D-2        0.00000   0.00000   0.00000   0.00000   0.00000
  28 2   H  1S          0.00000  -0.00427   0.00950  -0.00926  -0.00945
  29        2S          0.00000  -0.02583   0.06711  -0.11297  -0.56992
  30        3S          0.00000  -0.68349   1.82505  -2.86495  -4.87452
  31        4S          0.00000  -0.68105   5.79749  -5.01315  -0.54374
  32        5PX         0.00000  -0.00072   0.00026  -0.00226   0.00489
  33        5PY        -0.00072   0.00000   0.00000   0.00000   0.00000
  34        5PZ         0.00000   0.00023  -0.00204   0.00069  -0.00138
  35        6PX         0.00000   0.00746   0.00523   0.00042  -0.00605
  36        6PY         0.01758   0.00000   0.00000   0.00000   0.00000
  37        6PZ         0.00000   0.00889   0.01466   0.00563   0.01392
  38        7PX         0.00000  -0.12394   0.14185  -0.35086  -0.68864
  39        7PY        -0.11015   0.00000   0.00000   0.00000   0.00000
  40        7PZ         0.00000  -0.04360  -0.20984   0.20638   0.43733
  41 3   H  1S          0.00000  -0.00427  -0.00950  -0.00926  -0.00945
  42        2S          0.00000  -0.02583  -0.06711  -0.11297  -0.56992
  43        3S          0.00000  -0.68349  -1.82505  -2.86495  -4.87452
  44        4S          0.00000  -0.68105  -5.79749  -5.01315  -0.54374
  45        5PX         0.00000   0.00072   0.00026   0.00226  -0.00489
  46        5PY        -0.00072   0.00000   0.00000   0.00000   0.00000
  47        5PZ         0.00000   0.00023   0.00204   0.00069  -0.00138
  48        6PX         0.00000  -0.00746   0.00523  -0.00042   0.00605
  49        6PY         0.01758   0.00000   0.00000   0.00000   0.00000
  50        6PZ         0.00000   0.00889  -0.01466   0.00563   0.01392
  51        7PX         0.00000   0.12394   0.14185   0.35086   0.68864
  52        7PY        -0.11015   0.00000   0.00000   0.00000   0.00000
  53        7PZ         0.00000  -0.04360   0.20984   0.20638   0.43733
  54 4   F  1S          0.00967  -0.01024   0.00000   0.00770   0.00421
  55        2S          0.01715  -0.01799   0.00000   0.01365   0.00699
  56        2PX         0.00000   0.00000  -0.02599   0.00000   0.00000
  57        2PY        -0.01131  -0.01397   0.00000  -0.01267  -0.00855
  58        2PZ        -0.02378  -0.01077   0.00000   0.00860  -0.01134
  59        3S         -0.06454   0.06435   0.00000  -0.05192  -0.01815
  60        3PX         0.00000   0.00000  -0.05286   0.00000   0.00000
  61        3PY        -0.02340  -0.02255   0.00000  -0.02707  -0.00820
  62        3PZ        -0.03635  -0.02494   0.00000   0.01246  -0.00891
  63        4S         -0.04292   0.06876   0.00000  -0.02728  -0.04139
  64        4PX         0.00000   0.00000   0.01686   0.00000   0.00000
  65        4PY         0.04557  -0.05518   0.00000   0.07557  -0.06617
  66        4PZ        -0.07091   0.05315   0.00000  -0.01710  -0.04093
  67        5S         -1.11304   0.94250   0.00000  -2.09930   0.03305
  68        5PX         0.00000   0.00000  -0.58401   0.00000   0.00000
  69        5PY        -0.03839  -0.25541   0.00000   0.29253  -0.06169
  70        5PZ        -0.24909  -0.18024   0.00000  -0.36047  -0.11974
  71        6D 0        0.00048   0.00013   0.00000  -0.00043   0.00099
  72        6D+1        0.00000   0.00000  -0.00061   0.00000   0.00000
  73        6D-1       -0.00055   0.00082   0.00000  -0.00025  -0.00088
  74        6D+2       -0.00023  -0.00011   0.00000  -0.00123  -0.00049
  75        6D-2        0.00000   0.00000  -0.00012   0.00000   0.00000
  76        7D 0       -0.00091   0.00163   0.00000  -0.00016   0.00572
  77        7D+1        0.00000   0.00000  -0.00304   0.00000   0.00000
  78        7D-1        0.00411  -0.00360   0.00000   0.00859  -0.00428
  79        7D+2        0.00176  -0.00250   0.00000   0.00593  -0.00801
  80        7D-2        0.00000   0.00000   0.00159   0.00000   0.00000
  81 5   F  1S         -0.00967  -0.01024   0.00000   0.00770   0.00421
  82        2S         -0.01715  -0.01799   0.00000   0.01365   0.00699
  83        2PX         0.00000   0.00000  -0.02599   0.00000   0.00000
  84        2PY        -0.01131   0.01397   0.00000   0.01267   0.00855
  85        2PZ         0.02378  -0.01077   0.00000   0.00860  -0.01134
  86        3S          0.06454   0.06435   0.00000  -0.05192  -0.01815
  87        3PX         0.00000   0.00000  -0.05286   0.00000   0.00000
  88        3PY        -0.02340   0.02255   0.00000   0.02707   0.00820
  89        3PZ         0.03635  -0.02494   0.00000   0.01246  -0.00891
  90        4S          0.04292   0.06876   0.00000  -0.02728  -0.04139
  91        4PX         0.00000   0.00000   0.01686   0.00000   0.00000
  92        4PY         0.04557   0.05518   0.00000  -0.07557   0.06617
  93        4PZ         0.07091   0.05315   0.00000  -0.01710  -0.04093
  94        5S          1.11304   0.94250   0.00000  -2.09930   0.03305
  95        5PX         0.00000   0.00000  -0.58401   0.00000   0.00000
  96        5PY        -0.03839   0.25541   0.00000  -0.29253   0.06169
  97        5PZ         0.24909  -0.18024   0.00000  -0.36047  -0.11974
  98        6D 0       -0.00048   0.00013   0.00000  -0.00043   0.00099
  99        6D+1        0.00000   0.00000  -0.00061   0.00000   0.00000
 100        6D-1       -0.00055  -0.00082   0.00000   0.00025   0.00088
 101        6D+2        0.00023  -0.00011   0.00000  -0.00123  -0.00049
 102        6D-2        0.00000   0.00000   0.00012   0.00000   0.00000
 103        7D 0        0.00091   0.00163   0.00000  -0.00016   0.00572
 104        7D+1        0.00000   0.00000  -0.00304   0.00000   0.00000
 105        7D-1        0.00411   0.00360   0.00000  -0.00859   0.00428
 106        7D+2       -0.00176  -0.00250   0.00000   0.00593  -0.00801
 107        7D-2        0.00000   0.00000  -0.00159   0.00000   0.00000
                          21        22        23        24        25
                        (B1)--V   (B2)--V   (A1)--V   (B2)--V   (A2)--V
     Eigenvalues --     0.26492   0.31250   0.32405   0.32879   0.34392
   1 1   C  1S          0.00000   0.00000   0.03182   0.00000   0.00000
   2        2S          0.00000   0.00000   0.05456   0.00000   0.00000
   3        2PX         0.13527   0.00000   0.00000   0.00000   0.00000
   4        2PY         0.00000  -0.02829   0.00000  -0.16920   0.00000
   5        2PZ         0.00000   0.00000   0.09539   0.00000   0.00000
   6        3S          0.00000   0.00000  -0.15191   0.00000   0.00000
   7        3PX         0.29691   0.00000   0.00000   0.00000   0.00000
   8        3PY         0.00000   0.11464   0.00000  -0.26248   0.00000
   9        3PZ         0.00000   0.00000   0.15307   0.00000   0.00000
  10        4S          0.00000   0.00000  -0.68869   0.00000   0.00000
  11        4PX         3.15231   0.00000   0.00000   0.00000   0.00000
  12        4PY         0.00000  -1.57807   0.00000  -0.11115   0.00000
  13        4PZ         0.00000   0.00000   0.60000   0.00000   0.00000
  14        5S          0.00000   0.00000   1.17440   0.00000   0.00000
  15        5PX        -0.13977   0.00000   0.00000   0.00000   0.00000
  16        5PY         0.00000   0.10181   0.00000   1.18024   0.00000
  17        5PZ         0.00000   0.00000  -0.29094   0.00000   0.00000
  18        6D 0        0.00000   0.00000   0.01605   0.00000   0.00000
  19        6D+1       -0.01707   0.00000   0.00000   0.00000   0.00000
  20        6D-1        0.00000   0.00106   0.00000  -0.02981   0.00000
  21        6D+2        0.00000   0.00000  -0.02268   0.00000   0.00000
  22        6D-2        0.00000   0.00000   0.00000   0.00000   0.00905
  23        7D 0        0.00000   0.00000  -0.04768   0.00000   0.00000
  24        7D+1        0.24541   0.00000   0.00000   0.00000   0.00000
  25        7D-1        0.00000   0.04869   0.00000  -0.09105   0.00000
  26        7D+2        0.00000   0.00000   0.02827   0.00000   0.00000
  27        7D-2        0.00000   0.00000   0.00000   0.00000  -0.01683
  28 2   H  1S          0.00378   0.00000  -0.00950   0.00000   0.00000
  29        2S          0.46968   0.00000  -0.22204   0.00000   0.00000
  30        3S          4.62071   0.00000   0.19781   0.00000   0.00000
  31        4S         -2.35045   0.00000  -0.23657   0.00000   0.00000
  32        5PX        -0.00248   0.00000   0.00496   0.00000   0.00000
  33        5PY         0.00000   0.00324   0.00000  -0.00803  -0.00298
  34        5PZ         0.00282   0.00000   0.00416   0.00000   0.00000
  35        6PX         0.00852   0.00000  -0.01776   0.00000   0.00000
  36        6PY         0.00000  -0.00895   0.00000   0.00952   0.00349
  37        6PZ         0.00370   0.00000   0.01063   0.00000   0.00000
  38        7PX         0.60987   0.00000   0.22163   0.00000   0.00000
  39        7PY         0.00000   0.20585   0.00000  -0.43698  -0.10578
  40        7PZ        -0.51447   0.00000   0.20621   0.00000   0.00000
  41 3   H  1S         -0.00378   0.00000  -0.00950   0.00000   0.00000
  42        2S         -0.46968   0.00000  -0.22204   0.00000   0.00000
  43        3S         -4.62071   0.00000   0.19781   0.00000   0.00000
  44        4S          2.35045   0.00000  -0.23657   0.00000   0.00000
  45        5PX        -0.00248   0.00000  -0.00496   0.00000   0.00000
  46        5PY         0.00000   0.00324   0.00000  -0.00803   0.00298
  47        5PZ        -0.00282   0.00000   0.00416   0.00000   0.00000
  48        6PX         0.00852   0.00000   0.01776   0.00000   0.00000
  49        6PY         0.00000  -0.00895   0.00000   0.00952  -0.00349
  50        6PZ        -0.00370   0.00000   0.01063   0.00000   0.00000
  51        7PX         0.60987   0.00000  -0.22163   0.00000   0.00000
  52        7PY         0.00000   0.20585   0.00000  -0.43698   0.10578
  53        7PZ         0.51447   0.00000   0.20621   0.00000   0.00000
  54 4   F  1S          0.00000  -0.00600  -0.01747  -0.02472   0.00000
  55        2S          0.00000  -0.01036  -0.02917  -0.04191   0.00000
  56        2PX        -0.02588   0.00000   0.00000   0.00000  -0.07338
  57        2PY         0.00000   0.02418  -0.03831  -0.02775   0.00000
  58        2PZ         0.00000  -0.05226   0.05542   0.07624   0.00000
  59        3S          0.00000   0.03575   0.06728   0.11445   0.00000
  60        3PX        -0.02640   0.00000   0.00000   0.00000  -0.05782
  61        3PY         0.00000   0.01388  -0.08009  -0.06268   0.00000
  62        3PZ         0.00000  -0.04823   0.06986   0.12003   0.00000
  63        4S          0.00000   0.11928   0.49667   0.47163   0.00000
  64        4PX        -0.11575   0.00000   0.00000   0.00000  -0.39045
  65        4PY         0.00000   0.13830  -0.04947   0.02149   0.00000
  66        4PZ         0.00000  -0.22591   0.21540   0.14058   0.00000
  67        5S          0.00000   1.71238  -0.62366  -0.84369   0.00000
  68        5PX        -0.16293   0.00000   0.00000   0.00000   1.10005
  69        5PY         0.00000  -1.36055  -0.42982  -0.43242   0.00000
  70        5PZ         0.00000   1.27570  -0.39463   0.04024   0.00000
  71        6D 0        0.00000  -0.00036   0.00232  -0.00143   0.00000
  72        6D+1        0.00050   0.00000   0.00000   0.00000  -0.00024
  73        6D-1        0.00000   0.00082   0.00045   0.00153   0.00000
  74        6D+2        0.00000   0.00070   0.00212  -0.00025   0.00000
  75        6D-2       -0.00201   0.00000   0.00000   0.00000   0.00156
  76        7D 0        0.00000   0.00029   0.01039  -0.00977   0.00000
  77        7D+1        0.00083   0.00000   0.00000   0.00000   0.00030
  78        7D-1        0.00000   0.01577   0.00327   0.00762   0.00000
  79        7D+2        0.00000   0.00800  -0.00060  -0.00096   0.00000
  80        7D-2       -0.01085   0.00000   0.00000   0.00000   0.00668
  81 5   F  1S          0.00000   0.00600  -0.01747   0.02472   0.00000
  82        2S          0.00000   0.01036  -0.02917   0.04191   0.00000
  83        2PX        -0.02588   0.00000   0.00000   0.00000   0.07338
  84        2PY         0.00000   0.02418   0.03831  -0.02775   0.00000
  85        2PZ         0.00000   0.05226   0.05542  -0.07624   0.00000
  86        3S          0.00000  -0.03575   0.06728  -0.11445   0.00000
  87        3PX        -0.02640   0.00000   0.00000   0.00000   0.05782
  88        3PY         0.00000   0.01388   0.08009  -0.06268   0.00000
  89        3PZ         0.00000   0.04823   0.06986  -0.12003   0.00000
  90        4S          0.00000  -0.11928   0.49667  -0.47163   0.00000
  91        4PX        -0.11575   0.00000   0.00000   0.00000   0.39045
  92        4PY         0.00000   0.13830   0.04947   0.02149   0.00000
  93        4PZ         0.00000   0.22591   0.21540  -0.14058   0.00000
  94        5S          0.00000  -1.71238  -0.62366   0.84369   0.00000
  95        5PX        -0.16293   0.00000   0.00000   0.00000  -1.10005
  96        5PY         0.00000  -1.36055   0.42982  -0.43242   0.00000
  97        5PZ         0.00000  -1.27570  -0.39463  -0.04024   0.00000
  98        6D 0        0.00000   0.00036   0.00232   0.00143   0.00000
  99        6D+1        0.00050   0.00000   0.00000   0.00000   0.00024
 100        6D-1        0.00000   0.00082  -0.00045   0.00153   0.00000
 101        6D+2        0.00000  -0.00070   0.00212   0.00025   0.00000
 102        6D-2        0.00201   0.00000   0.00000   0.00000   0.00156
 103        7D 0        0.00000  -0.00029   0.01039   0.00977   0.00000
 104        7D+1        0.00083   0.00000   0.00000   0.00000  -0.00030
 105        7D-1        0.00000   0.01577  -0.00327   0.00762   0.00000
 106        7D+2        0.00000  -0.00800  -0.00060   0.00096   0.00000
 107        7D-2        0.01085   0.00000   0.00000   0.00000   0.00668
                          26        27        28        29        30
                        (A1)--V   (A1)--V   (B2)--V   (B1)--V   (A1)--V
     Eigenvalues --     0.37043   0.37336   0.42890   0.45007   0.50741
   1 1   C  1S         -0.02041   0.01497   0.00000   0.00000  -0.03961
   2        2S         -0.03810   0.02196   0.00000   0.00000  -0.06768
   3        2PX         0.00000   0.00000   0.00000   0.00505   0.00000
   4        2PY         0.00000   0.00000   0.05758   0.00000   0.00000
   5        2PZ        -0.04392   0.08358   0.00000   0.00000  -0.06121
   6        3S          0.18012   0.01345   0.00000   0.00000   0.00080
   7        3PX         0.00000   0.00000   0.00000   0.02025   0.00000
   8        3PY         0.00000   0.00000   0.11876   0.00000   0.00000
   9        3PZ        -0.11611   0.05355   0.00000   0.00000  -0.12298
  10        4S          0.12957  -0.51779   0.00000   0.00000   6.97022
  11        4PX         0.00000   0.00000   0.00000   2.26913   0.00000
  12        4PY         0.00000   0.00000   1.68521   0.00000   0.00000
  13        4PZ         1.96882   1.77750   0.00000   0.00000  -1.48991
  14        5S          1.62670   4.16497   0.00000   0.00000  11.89651
  15        5PX         0.00000   0.00000   0.00000   4.55016   0.00000
  16        5PY         0.00000   0.00000   1.16734   0.00000   0.00000
  17        5PZ         1.69102   0.19523   0.00000   0.00000   1.21586
  18        6D 0       -0.01635  -0.00724   0.00000   0.00000  -0.00422
  19        6D+1        0.00000   0.00000   0.00000   0.00074   0.00000
  20        6D-1        0.00000   0.00000   0.01135   0.00000   0.00000
  21        6D+2        0.01120  -0.00914   0.00000   0.00000   0.01425
  22        6D-2        0.00000   0.00000   0.00000   0.00000   0.00000
  23        7D 0        0.06842   0.02859   0.00000   0.00000  -0.01538
  24        7D+1        0.00000   0.00000   0.00000   0.20854   0.00000
  25        7D-1        0.00000   0.00000  -0.14457   0.00000   0.00000
  26        7D+2        0.18682   0.01164   0.00000   0.00000  -0.08877
  27        7D-2        0.00000   0.00000   0.00000   0.00000   0.00000
  28 2   H  1S          0.00716  -0.00156   0.00000  -0.02597   0.02741
  29        2S         -0.20253  -0.02644   0.00000   0.43403   0.03503
  30        3S         -1.66793  -3.05725   0.00000   2.06367  -2.49765
  31        4S         -0.66143  -0.66401   0.00000   3.96490  -3.10232
  32        5PX        -0.00240  -0.00183   0.00000  -0.00178  -0.00132
  33        5PY         0.00000   0.00000   0.00184   0.00000   0.00000
  34        5PZ        -0.00439  -0.00046   0.00000  -0.00054  -0.00274
  35        6PX         0.00375   0.02200   0.00000   0.02034   0.00795
  36        6PY         0.00000   0.00000   0.00339   0.00000   0.00000
  37        6PZ         0.00835  -0.00670   0.00000  -0.00750  -0.00415
  38        7PX        -0.44640  -0.39256   0.00000   0.23538  -0.34185
  39        7PY         0.00000   0.00000  -0.07118   0.00000   0.00000
  40        7PZ        -0.31875   0.10533   0.00000  -0.35378   0.18756
  41 3   H  1S          0.00716  -0.00156   0.00000   0.02597   0.02741
  42        2S         -0.20253  -0.02644   0.00000  -0.43403   0.03503
  43        3S         -1.66793  -3.05725   0.00000  -2.06367  -2.49765
  44        4S         -0.66143  -0.66401   0.00000  -3.96490  -3.10232
  45        5PX         0.00240   0.00183   0.00000  -0.00178   0.00132
  46        5PY         0.00000   0.00000   0.00184   0.00000   0.00000
  47        5PZ        -0.00439  -0.00046   0.00000   0.00054  -0.00274
  48        6PX        -0.00375  -0.02200   0.00000   0.02034  -0.00795
  49        6PY         0.00000   0.00000   0.00339   0.00000   0.00000
  50        6PZ         0.00835  -0.00670   0.00000   0.00750  -0.00415
  51        7PX         0.44640   0.39256   0.00000   0.23538   0.34185
  52        7PY         0.00000   0.00000  -0.07118   0.00000   0.00000
  53        7PZ        -0.31875   0.10533   0.00000   0.35378   0.18756
  54 4   F  1S          0.01756  -0.00859  -0.00176   0.00000  -0.01219
  55        2S          0.03044  -0.01477  -0.00347   0.00000  -0.02009
  56        2PX         0.00000   0.00000   0.00000   0.08165   0.00000
  57        2PY         0.07902  -0.00503   0.06603   0.00000   0.07810
  58        2PZ         0.03376  -0.02873   0.01321   0.00000  -0.02614
  59        3S         -0.09978   0.04634   0.02634   0.00000   0.04811
  60        3PX         0.00000   0.00000   0.00000   0.07478   0.00000
  61        3PY         0.10803  -0.02871   0.05423   0.00000   0.06749
  62        3PZ         0.01511  -0.00831  -0.00272   0.00000  -0.02866
  63        4S         -0.15516   0.14311  -0.20633   0.00000   0.39898
  64        4PX         0.00000   0.00000   0.00000   0.42053   0.00000
  65        4PY         0.15965   0.07533   0.49472   0.00000   0.60176
  66        4PZ         0.28692  -0.21968   0.04467   0.00000  -0.21367
  67        5S          1.57477   0.69731  -1.14585   0.00000  -5.21028
  68        5PX         0.00000   0.00000   0.00000  -1.98416   0.00000
  69        5PY        -0.94573  -1.34259  -1.25237   0.00000   0.64217
  70        5PZ        -0.60649   1.30682  -1.23181   0.00000  -0.74449
  71        6D 0        0.00032   0.00057   0.00243   0.00000  -0.00126
  72        6D+1        0.00000   0.00000   0.00000   0.00202   0.00000
  73        6D-1        0.00091   0.00280  -0.00334   0.00000  -0.00500
  74        6D+2        0.00057   0.00151   0.00131   0.00000  -0.00458
  75        6D-2        0.00000   0.00000   0.00000  -0.00131   0.00000
  76        7D 0        0.00458   0.00298   0.00843   0.00000  -0.00410
  77        7D+1        0.00000   0.00000   0.00000   0.00340   0.00000
  78        7D-1       -0.00619   0.01144   0.00769   0.00000   0.00215
  79        7D+2        0.00223   0.01334   0.00921   0.00000   0.01426
  80        7D-2        0.00000   0.00000   0.00000  -0.00536   0.00000
  81 5   F  1S          0.01756  -0.00859   0.00176   0.00000  -0.01219
  82        2S          0.03044  -0.01477   0.00347   0.00000  -0.02009
  83        2PX         0.00000   0.00000   0.00000   0.08165   0.00000
  84        2PY        -0.07902   0.00503   0.06603   0.00000  -0.07810
  85        2PZ         0.03376  -0.02873  -0.01321   0.00000  -0.02614
  86        3S         -0.09978   0.04634  -0.02634   0.00000   0.04811
  87        3PX         0.00000   0.00000   0.00000   0.07478   0.00000
  88        3PY        -0.10803   0.02871   0.05423   0.00000  -0.06749
  89        3PZ         0.01511  -0.00831   0.00272   0.00000  -0.02866
  90        4S         -0.15516   0.14311   0.20633   0.00000   0.39898
  91        4PX         0.00000   0.00000   0.00000   0.42053   0.00000
  92        4PY        -0.15965  -0.07533   0.49472   0.00000  -0.60176
  93        4PZ         0.28692  -0.21968  -0.04467   0.00000  -0.21367
  94        5S          1.57477   0.69731   1.14585   0.00000  -5.21028
  95        5PX         0.00000   0.00000   0.00000  -1.98416   0.00000
  96        5PY         0.94573   1.34259  -1.25237   0.00000  -0.64217
  97        5PZ        -0.60649   1.30682   1.23181   0.00000  -0.74449
  98        6D 0        0.00032   0.00057  -0.00243   0.00000  -0.00126
  99        6D+1        0.00000   0.00000   0.00000   0.00202   0.00000
 100        6D-1       -0.00091  -0.00280  -0.00334   0.00000   0.00500
 101        6D+2        0.00057   0.00151  -0.00131   0.00000  -0.00458
 102        6D-2        0.00000   0.00000   0.00000   0.00131   0.00000
 103        7D 0        0.00458   0.00298  -0.00843   0.00000  -0.00410
 104        7D+1        0.00000   0.00000   0.00000   0.00340   0.00000
 105        7D-1        0.00619  -0.01144   0.00769   0.00000  -0.00215
 106        7D+2        0.00223   0.01334  -0.00921   0.00000   0.01426
 107        7D-2        0.00000   0.00000   0.00000   0.00536   0.00000
                          31        32        33        34        35
                        (B2)--V   (A2)--V   (B1)--V   (A1)--V   (A1)--V
     Eigenvalues --     0.51005   0.51746   0.51938   0.56726   0.61585
   1 1   C  1S          0.00000   0.00000   0.00000   0.06150   0.00452
   2        2S          0.00000   0.00000   0.00000   0.11504   0.00776
   3        2PX         0.00000   0.00000  -0.10883   0.00000   0.00000
   4        2PY        -0.12359   0.00000   0.00000   0.00000   0.00000
   5        2PZ         0.00000   0.00000   0.00000   0.05991  -0.23378
   6        3S          0.00000   0.00000   0.00000  -0.47532  -0.08647
   7        3PX         0.00000   0.00000  -0.10288   0.00000   0.00000
   8        3PY        -0.17290   0.00000   0.00000   0.00000   0.00000
   9        3PZ         0.00000   0.00000   0.00000   0.25514  -0.36154
  10        4S          0.00000   0.00000   0.00000   7.37056   6.54449
  11        4PX         0.00000   0.00000   2.31339   0.00000   0.00000
  12        4PY        -5.17347   0.00000   0.00000   0.00000   0.00000
  13        4PZ         0.00000   0.00000   0.00000   4.11419   2.17763
  14        5S          0.00000   0.00000   0.00000   5.02708  -0.15585
  15        5PX         0.00000   0.00000   0.29763   0.00000   0.00000
  16        5PY        -0.55992   0.00000   0.00000   0.00000   0.00000
  17        5PZ         0.00000   0.00000   0.00000   1.53590  -0.38047
  18        6D 0        0.00000   0.00000   0.00000  -0.02103   0.02435
  19        6D+1        0.00000   0.00000   0.01613   0.00000   0.00000
  20        6D-1       -0.01748   0.00000   0.00000   0.00000   0.00000
  21        6D+2        0.00000   0.00000   0.00000  -0.00907  -0.00420
  22        6D-2        0.00000  -0.03977   0.00000   0.00000   0.00000
  23        7D 0        0.00000   0.00000   0.00000   0.08128  -0.08109
  24        7D+1        0.00000   0.00000   0.26815   0.00000   0.00000
  25        7D-1        0.22574   0.00000   0.00000   0.00000   0.00000
  26        7D+2        0.00000   0.00000   0.00000   0.19363   0.52235
  27        7D-2        0.00000   0.13649   0.00000   0.00000   0.00000
  28 2   H  1S          0.00000   0.00000  -0.08827   0.10345   0.06430
  29        2S          0.00000   0.00000  -0.10408  -0.41409  -0.63279
  30        3S          0.00000   0.00000   3.96222  -5.71858  -4.47535
  31        4S          0.00000   0.00000  -0.66595  -1.06874   0.77567
  32        5PX         0.00000   0.00000  -0.00147  -0.00827   0.00056
  33        5PY         0.00077   0.01275   0.00000   0.00000   0.00000
  34        5PZ         0.00000   0.00000  -0.01230  -0.00094   0.00754
  35        6PX         0.00000   0.00000   0.00901   0.01745  -0.04387
  36        6PY        -0.02273  -0.03866   0.00000   0.00000   0.00000
  37        6PZ         0.00000   0.00000   0.04397   0.01716  -0.00909
  38        7PX         0.00000   0.00000   0.58489  -1.95261  -1.08817
  39        7PY         0.60901   1.12247   0.00000   0.00000   0.00000
  40        7PZ         0.00000   0.00000  -1.40653   0.48252   1.55667
  41 3   H  1S          0.00000   0.00000   0.08827   0.10345   0.06430
  42        2S          0.00000   0.00000   0.10408  -0.41409  -0.63279
  43        3S          0.00000   0.00000  -3.96222  -5.71858  -4.47535
  44        4S          0.00000   0.00000   0.66595  -1.06874   0.77567
  45        5PX         0.00000   0.00000  -0.00147   0.00827  -0.00056
  46        5PY         0.00077  -0.01275   0.00000   0.00000   0.00000
  47        5PZ         0.00000   0.00000   0.01230  -0.00094   0.00754
  48        6PX         0.00000   0.00000   0.00901  -0.01745   0.04387
  49        6PY        -0.02273   0.03866   0.00000   0.00000   0.00000
  50        6PZ         0.00000   0.00000  -0.04397   0.01716  -0.00909
  51        7PX         0.00000   0.00000   0.58489   1.95261   1.08817
  52        7PY         0.60901  -1.12247   0.00000   0.00000   0.00000
  53        7PZ         0.00000   0.00000   1.40653   0.48252   1.55667
  54 4   F  1S          0.00769   0.00000   0.00000  -0.01890   0.01070
  55        2S          0.01240   0.00000   0.00000  -0.03296   0.01816
  56        2PX         0.00000   0.00405   0.03288   0.00000   0.00000
  57        2PY        -0.03685   0.00000   0.00000  -0.08282   0.07510
  58        2PZ         0.06201   0.00000   0.00000   0.04007  -0.00655
  59        3S         -0.02653   0.00000   0.00000   0.10455  -0.04901
  60        3PX         0.00000   0.02764   0.06301   0.00000   0.00000
  61        3PY        -0.04682   0.00000   0.00000  -0.11732   0.10780
  62        3PZ         0.04849   0.00000   0.00000   0.06392   0.00948
  63        4S         -0.15617   0.00000   0.00000   0.37715  -0.23244
  64        4PX         0.00000  -0.13968  -0.00238   0.00000   0.00000
  65        4PY        -0.33124   0.00000   0.00000  -0.32953   0.13672
  66        4PZ         0.54833   0.00000   0.00000   0.14329  -0.07050
  67        5S          6.46649   0.00000   0.00000   0.51882   1.02906
  68        5PX         0.00000   0.72899   0.28322   0.00000   0.00000
  69        5PY        -2.30490   0.00000   0.00000  -0.29156  -0.68497
  70        5PZ         1.04436   0.00000   0.00000  -0.30389   0.79345
  71        6D 0       -0.00161   0.00000   0.00000   0.00157  -0.00234
  72        6D+1        0.00000  -0.00148  -0.00319   0.00000   0.00000
  73        6D-1        0.00498   0.00000   0.00000   0.00185   0.00097
  74        6D+2        0.00390   0.00000   0.00000   0.00198  -0.00128
  75        6D-2        0.00000   0.00056   0.00233   0.00000   0.00000
  76        7D 0       -0.00511   0.00000   0.00000   0.01190  -0.01183
  77        7D+1        0.00000  -0.02387  -0.00629   0.00000   0.00000
  78        7D-1       -0.01504   0.00000   0.00000  -0.00324  -0.00066
  79        7D+2        0.00193   0.00000   0.00000   0.00604  -0.03040
  80        7D-2        0.00000   0.01279   0.01203   0.00000   0.00000
  81 5   F  1S         -0.00769   0.00000   0.00000  -0.01890   0.01070
  82        2S         -0.01240   0.00000   0.00000  -0.03296   0.01816
  83        2PX         0.00000  -0.00405   0.03288   0.00000   0.00000
  84        2PY        -0.03685   0.00000   0.00000   0.08282  -0.07510
  85        2PZ        -0.06201   0.00000   0.00000   0.04007  -0.00655
  86        3S          0.02653   0.00000   0.00000   0.10455  -0.04901
  87        3PX         0.00000  -0.02764   0.06301   0.00000   0.00000
  88        3PY        -0.04682   0.00000   0.00000   0.11732  -0.10780
  89        3PZ        -0.04849   0.00000   0.00000   0.06392   0.00948
  90        4S          0.15617   0.00000   0.00000   0.37715  -0.23244
  91        4PX         0.00000   0.13968  -0.00238   0.00000   0.00000
  92        4PY        -0.33124   0.00000   0.00000   0.32953  -0.13672
  93        4PZ        -0.54833   0.00000   0.00000   0.14329  -0.07050
  94        5S         -6.46649   0.00000   0.00000   0.51882   1.02906
  95        5PX         0.00000  -0.72899   0.28322   0.00000   0.00000
  96        5PY        -2.30490   0.00000   0.00000   0.29156   0.68497
  97        5PZ        -1.04436   0.00000   0.00000  -0.30389   0.79345
  98        6D 0        0.00161   0.00000   0.00000   0.00157  -0.00234
  99        6D+1        0.00000   0.00148  -0.00319   0.00000   0.00000
 100        6D-1        0.00498   0.00000   0.00000  -0.00185  -0.00097
[...]
      6 -0.180913D-02  0.356573D-01 -0.732697D-01  0.696494D-02 -0.776801D-02
      7 -0.844104D-01 -0.345789D-01  0.669487D-01  0.978905D-02  0.552500D-02
      8 -0.438242D-01 -0.161865D+00  0.132893D+00 -0.957541D-02 -0.114193D-01
      9  0.722863D-01  0.117796D+00 -0.241688D+00  0.851822D-03  0.156861D-02
     10 -0.879363D-01 -0.270948D-01 -0.469294D-01  0.863402D-02 -0.212027D-02
     11 -0.202804D-01 -0.154287D+00 -0.103153D+00 -0.165573D-01 -0.189815D-01
     12 -0.351265D-01 -0.103153D+00 -0.273399D+00 -0.815799D-02 -0.151258D-01
     13 -0.335506D+00  0.234881D-01  0.406775D-01 -0.405624D-01  0.356756D-02
     14  0.166737D-01 -0.923955D-01  0.404739D-02  0.423503D-01  0.100046D-01
     15  0.288746D-01  0.404753D-02 -0.877209D-01 -0.318720D-02  0.765459D-03
                6             7             8             9            10 
      6  0.715805D-01
      7 -0.786609D-02  0.106550D+00
      8  0.262276D-01  0.517746D-01  0.148082D+00
      9  0.462877D-02 -0.757468D-01 -0.124737D+00  0.274179D+00
     10  0.240204D-02  0.863431D-02  0.314081D-02 -0.634537D-03  0.115734D+00
     11 -0.500504D-01  0.121371D-02  0.147955D-01  0.437537D-02  0.583482D-01
     12 -0.115749D-01 -0.184181D-01 -0.305488D-01 -0.453522D-01  0.101063D+00
     13  0.308242D-03 -0.405633D-01 -0.151583D-02  0.324322D-02 -0.450662D-01
     14 -0.406648D-02 -0.239344D-01  0.104075D-01  0.997485D-03 -0.322739D-01
     15  0.863534D-02  0.350822D-01 -0.383480D-02  0.823331D-02 -0.559013D-01
               11            12            13            14            15 
     11  0.151328D+00
     12  0.156517D+00  0.332061D+00
     13 -0.227241D-01 -0.393606D-01  0.461698D+00
     14  0.714496D-02 -0.768946D-02 -0.281570D-02  0.648384D-01
     15 -0.768926D-02 -0.173531D-02 -0.486839D-02  0.671108D-02  0.725876D-01
 FormGI is forming the generalized inverse of G from B-inverse, IUseBI=4.
 Force constants in internal coordinates: 
                1             2             3             4             5 
      1  0.381445D+00
      2  0.434014D-02  0.381445D+00
      3  0.163122D-01  0.163122D-01  0.461775D+00
      4  0.163122D-01  0.163122D-01  0.572655D-01  0.461775D+00
      5  0.291640D-02  0.291640D-02 -0.632562D-02 -0.125932D-01  0.263825D-01
      6  0.843326D-03 -0.195486D-02  0.153737D-01 -0.221816D-01 -0.130254D-01
      7  0.285203D-02 -0.479410D-02 -0.207429D-01  0.185368D-01 -0.197731D-01
      8 -0.195487D-02  0.843327D-03  0.153737D-01 -0.221816D-01 -0.130254D-01
      9 -0.479410D-02  0.285203D-02 -0.207430D-01  0.185368D-01 -0.197731D-01
     10  0.422670D-04  0.422672D-04  0.182656D-01  0.214670D-01  0.405331D-01
     11  0.289135D-02  0.289135D-02  0.118027D-01 -0.438427D-01  0.159533D-01
     12 -0.236161D-02 -0.236160D-02  0.342701D-01 -0.810033D-02 -0.734561D-02
     13  0.261952D-02 -0.498112D-02  0.171350D-01 -0.405017D-02 -0.367281D-02
     14  0.498112D-02 -0.261952D-02 -0.171350D-01  0.405016D-02  0.367281D-02
                6             7             8             9            10 
      6  0.653256D-01
      7 -0.258520D-01  0.130071D+00
      8  0.443691D-02  0.340466D-01  0.653256D-01
      9  0.340466D-01 -0.605089D-01 -0.258520D-01  0.130071D+00
     10 -0.681959D-01 -0.606117D-01 -0.681959D-01 -0.606117D-01  0.228101D+00
     11  0.284168D-01 -0.191832D-01  0.284168D-01 -0.191832D-01 -0.369567D-01
     12  0.108532D-01 -0.199590D-01  0.108532D-01 -0.199590D-01  0.272818D-01
     13  0.251207D-01  0.730253D-02 -0.142675D-01 -0.272616D-01  0.136409D-01
     14  0.142675D-01  0.272616D-01 -0.251207D-01 -0.730253D-02 -0.136409D-01
               11            12            13            14 
     11  0.559448D-01
     12  0.477684D-02  0.345293D-01
     13  0.238842D-02  0.172646D-01  0.417838D-01
     14 -0.238842D-02 -0.172646D-01  0.245192D-01  0.417838D-01
 Leave Link  716 at Fri Sep  6 11:00:31 2024, MaxMem=  1073741824 cpu:               0.2 elap:               0.0
 (Enter /Users/asuyarger/Applications/G16/g16/l103.exe)

 GradGradGradGradGradGradGradGradGradGradGradGradGradGradGradGradGradGrad
 Berny optimization.
 Red2BG is reusing G-inverse.
 Internal  Forces:  Max     0.000007286 RMS     0.000003427
 Search for a local minimum.
 Step number   1 out of a maximum of    2
 All quantities printed in internal units (Hartrees-Bohrs-Radians)
 Second derivative matrix not updated -- analytic derivatives used.
 The second derivative matrix:
                          R1        R2        R3        R4        A1
           R1           0.38145
           R2           0.00434   0.38145
           R3           0.01631   0.01631   0.46177
           R4           0.01631   0.01631   0.05727   0.46177
           A1           0.00292   0.00292  -0.00633  -0.01259   0.02638
           A2           0.00084  -0.00195   0.01537  -0.02218  -0.01303
           A3           0.00285  -0.00479  -0.02074   0.01854  -0.01977
           A4          -0.00195   0.00084   0.01537  -0.02218  -0.01303
           A5          -0.00479   0.00285  -0.02074   0.01854  -0.01977
           A6           0.00004   0.00004   0.01827   0.02147   0.04053
           D1           0.00289   0.00289   0.01180  -0.04384   0.01595
           D2          -0.00236  -0.00236   0.03427  -0.00810  -0.00735
           D3           0.00262  -0.00498   0.01714  -0.00405  -0.00367
           D4           0.00498  -0.00262  -0.01714   0.00405   0.00367
                          A2        A3        A4        A5        A6
           A2           0.06533
           A3          -0.02585   0.13007
           A4           0.00444   0.03405   0.06533
           A5           0.03405  -0.06051  -0.02585   0.13007
           A6          -0.06820  -0.06061  -0.06820  -0.06061   0.22810
           D1           0.02842  -0.01918   0.02842  -0.01918  -0.03696
           D2           0.01085  -0.01996   0.01085  -0.01996   0.02728
           D3           0.02512   0.00730  -0.01427  -0.02726   0.01364
           D4           0.01427   0.02726  -0.02512  -0.00730  -0.01364
                          D1        D2        D3        D4
           D1           0.05594
           D2           0.00478   0.03453
           D3           0.00239   0.01726   0.04178
           D4          -0.00239  -0.01726   0.02452   0.04178
 ITU=  0
     Eigenvalues ---    0.05635   0.10117   0.10341   0.21602   0.31493
     Eigenvalues ---    0.37769   0.37941   0.42400   0.53280
 Angle between quadratic step and forces=  47.84 degrees.
 Linear search not attempted -- first point.
 Iteration  1 RMS(Cart)=  0.00001571 RMS(Int)=  0.00000000
 Iteration  2 RMS(Cart)=  0.00000000 RMS(Int)=  0.00000000
 ITry= 1 IFail=0 DXMaxC= 2.90D-05 DCOld= 1.00D+10 DXMaxT= 3.00D-01 DXLimC= 3.00D+00 Rises=F
 ClnCor:  largest displacement from symmetrization is 1.92D-11 for atom     1.
 Variable       Old X    -DE/DX   Delta X   Delta X   Delta X     New X
                                 (Linear)    (Quad)   (Total)
    R1        2.03554   0.00000   0.00000   0.00001   0.00001   2.03556
    R2        2.03554   0.00000   0.00000   0.00001   0.00001   2.03556
    R3        2.52160  -0.00001   0.00000  -0.00002  -0.00002   2.52158
    R4        2.52160  -0.00001   0.00000  -0.00002  -0.00002   2.52158
    A1        1.97132  -0.00000   0.00000  -0.00006  -0.00006   1.97126
    A2        1.90061   0.00000   0.00000   0.00001   0.00001   1.90062
    A3        1.90061   0.00000   0.00000   0.00001   0.00001   1.90062
    A4        1.90061   0.00000   0.00000   0.00001   0.00001   1.90062
    A5        1.90061   0.00000   0.00000   0.00001   0.00001   1.90062
    A6        1.88844   0.00000   0.00000   0.00001   0.00001   1.88845
    D1        2.15647  -0.00000   0.00000  -0.00006  -0.00006   2.15642
    D2       -2.15647   0.00000   0.00000   0.00006   0.00006  -2.15642
    D3        2.06336   0.00000   0.00000   0.00003   0.00003   2.06338
    D4       -2.06336  -0.00000   0.00000  -0.00003  -0.00003  -2.06338
         Item               Value     Threshold  Converged?
 Maximum Force            0.000007     0.000015     YES
 RMS     Force            0.000003     0.000010     YES
 Maximum Displacement     0.000029     0.000060     YES
 RMS     Displacement     0.000016     0.000040     YES
 Predicted change in Energy=-4.905538D-10
 Optimization completed.
    -- Stationary point found.
                           ----------------------------
                           !   Optimized Parameters   !
                           ! (Angstroms and Degrees)  !
 --------------------------                            --------------------------
 ! Name  Definition              Value          Derivative Info.                !
 --------------------------------------------------------------------------------
 ! R1    R(1,2)                  1.0772         -DE/DX =    0.0                 !
 ! R2    R(1,3)                  1.0772         -DE/DX =    0.0                 !
 ! R3    R(1,4)                  1.3344         -DE/DX =    0.0                 !
 ! R4    R(1,5)                  1.3344         -DE/DX =    0.0                 !
 ! A1    A(2,1,3)              112.9481         -DE/DX =    0.0                 !
 ! A2    A(2,1,4)              108.8967         -DE/DX =    0.0                 !
 ! A3    A(2,1,5)              108.8967         -DE/DX =    0.0                 !
 ! A4    A(3,1,4)              108.8967         -DE/DX =    0.0                 !
 ! A5    A(3,1,5)              108.8967         -DE/DX =    0.0                 !
 ! A6    A(4,1,5)              108.1996         -DE/DX =    0.0                 !
 ! D1    D(2,1,4,3)            123.5568         -DE/DX =    0.0                 !
 ! D2    D(2,1,5,3)           -123.5568         -DE/DX =    0.0                 !
 ! D3    D(2,1,5,4)            118.2216         -DE/DX =    0.0                 !
 ! D4    D(3,1,5,4)           -118.2216         -DE/DX =    0.0                 !
 --------------------------------------------------------------------------------
 GradGradGradGradGradGradGradGradGradGradGradGradGradGradGradGradGradGrad

 Leave Link  103 at Fri Sep  6 11:00:31 2024, MaxMem=  1073741824 cpu:               0.1 elap:               0.0
 (Enter /Users/asuyarger/Applications/G16/g16/l9999.exe)

 ----------------------------------------------------------------------

 Electric dipole moment (input orientation):
 (Debye = 10**-18 statcoulomb cm , SI units = C m)
                  (au)            (Debye)         (10**-30 SI)
   Tot        0.845493D+00      0.214903D+01      0.716839D+01
   x          0.488142D+00      0.124073D+01      0.413864D+01
   y         -0.345177D+00     -0.877353D+00     -0.292653D+01
   z         -0.597854D+00     -0.151959D+01     -0.506882D+01

 Dipole polarizability, Alpha (input orientation).
 (esu units = cm**3 , SI units = C**2 m**2 J**-1)
 Alpha(0;0):
               (au)            (10**-24 esu)      (10**-40 SI)
   iso        0.146444D+02      0.217008D+01      0.241454D+01
   aniso      0.145233D+01      0.215213D+00      0.239457D+00
   xx         0.152034D+02      0.225291D+01      0.250670D+01
   yx         0.201757D+00      0.298974D-01      0.332653D-01
   yy         0.140884D+02      0.208769D+01      0.232286D+01
   zx         0.349484D+00      0.517882D-01      0.576221D-01
   zy         0.478989D+00      0.709789D-01      0.789747D-01
   zz         0.146415D+02      0.216965D+01      0.241406D+01

 First dipole hyperpolarizability, Beta (input orientation).
 ||, _|_  parallel and perpendicular components, (z) with respect to z axis,
 vector components x,y,z.  Values do not include the 1/n! factor of 1/2.
 (esu units = statvolt**-1 cm**4 , SI units = C**3 m**3 J**-2)
 Beta(0;0,0):
               (au)            (10**-30 esu)      (10**-50 SI)
   || (z)    -0.224317D+02     -0.193793D+00     -0.719242D-01
   _|_(z)    -0.747724D+01     -0.645975D-01     -0.239747D-01
   x          0.915763D+02      0.791148D+00      0.293627D+00
   y         -0.647559D+02     -0.559441D+00     -0.207631D+00
   z         -0.112159D+03     -0.968963D+00     -0.359621D+00
   ||         0.317232D+02      0.274064D+00      0.101716D+00
   xxx        0.155662D+02      0.134480D+00      0.499109D-01
   xxy       -0.330159D+01     -0.285231D-01     -0.105861D-01
   yxy        0.927444D+01      0.801239D-01      0.297372D-01
   yyy       -0.202259D+02     -0.174736D+00     -0.648514D-01
   xxz       -0.571865D+01     -0.494047D-01     -0.183361D-01
   yxz       -0.310893D+01     -0.268587D-01     -0.996835D-02
   yyz       -0.791683D+01     -0.683952D-01     -0.253842D-01
   zxz        0.568478D+01      0.491121D-01      0.182275D-01
   zyz        0.194214D+01      0.167785D-01      0.622719D-02
   zzz       -0.237507D+02     -0.205188D+00     -0.761534D-01

 ----------------------------------------------------------------------

 Dipole orientation:
     6         -1.20627918         -1.12920650         -1.61771551
     1         -0.91935049          0.54326021         -0.49345571
     1         -1.49320787         -2.80167322         -0.49345571
     9          0.80690255         -1.47458832         -3.09631715
     9         -3.21946091         -0.78382468         -3.09631715

 Electric dipole moment (dipole orientation):
 (Debye = 10**-18 statcoulomb cm , SI units = C m)
                  (au)            (Debye)         (10**-30 SI)
   Tot        0.845493D+00      0.214903D+01      0.716839D+01
   x          0.000000D+00      0.000000D+00      0.000000D+00
   y          0.000000D+00      0.000000D+00      0.000000D+00
   z          0.845493D+00      0.214903D+01      0.716839D+01

 Dipole polarizability, Alpha (dipole orientation).
 (esu units = cm**3 , SI units = C**2 m**2 J**-1)
 Alpha(0;0):
               (au)            (10**-24 esu)      (10**-40 SI)
   iso        0.146444D+02      0.217008D+01      0.241454D+01
   aniso      0.145233D+01      0.215213D+00      0.239457D+00
   xx         0.154408D+02      0.228809D+01      0.254584D+01
   yx        -0.279461D+00     -0.414119D-01     -0.460769D-01
   yy         0.138598D+02      0.205381D+01      0.228517D+01
   zx         0.000000D+00      0.000000D+00      0.000000D+00
   zy         0.000000D+00      0.000000D+00      0.000000D+00
   zz         0.146327D+02      0.216834D+01      0.241261D+01

 First dipole hyperpolarizability, Beta (dipole orientation).
 ||, _|_  parallel and perpendicular components, (z) with respect to z axis,
 vector components x,y,z.  Values do not include the 1/n! factor of 1/2.
 (esu units = statvolt**-1 cm**4 , SI units = C**3 m**3 J**-2)
 Beta(0;0,0):
               (au)            (10**-30 esu)      (10**-50 SI)
   || (z)     0.317232D+02      0.274064D+00      0.101716D+00
   _|_(z)     0.105744D+02      0.913547D-01      0.339054D-01
   x          0.000000D+00      0.000000D+00      0.000000D+00
   y          0.000000D+00      0.000000D+00      0.000000D+00
   z          0.158616D+03      0.137032D+01      0.508581D+00
   ||         0.317232D+02      0.274064D+00      0.101716D+00
   xxx        0.000000D+00      0.000000D+00      0.000000D+00
   xxy        0.000000D+00      0.000000D+00      0.000000D+00
   yxy        0.000000D+00      0.000000D+00      0.000000D+00
   yyy        0.000000D+00      0.000000D+00      0.000000D+00
   xxz        0.971555D+01      0.839348D-01      0.311516D-01
   yxz        0.162252D+01      0.140173D-01      0.520239D-02
   yyz        0.188946D+02      0.163235D+00      0.605830D-01
   zxz        0.000000D+00      0.000000D+00      0.000000D+00
   zyz        0.000000D+00      0.000000D+00      0.000000D+00
   zzz        0.242619D+02      0.209604D+00      0.777923D-01

 ----------------------------------------------------------------------
 1\1\GINC-JEFFSMACSTUDIO\Freq\RHF\6-311++G(2d,3p)\C1H2F2\ROOT\06-Sep-20
 24\0\\#P Geom=AllCheck Guess=TCheck SCRF=Check GenChk RHF/6-311++G(2d,
 3p) Freq\\R32 HF 6-311++g(2d,3p) Opt Freq - Full - NBO\\0,1\C,-0.92543
 0799,0.800562694,-0.0071685228\H,-0.581958828,-0.2199791085,0.02113117
 8\H,-0.5819396677,1.3353355913,-0.8768300831\F,-0.4946199944,1.4320153
 074,1.0865487997\F,-2.2597202895,0.807982606,0.0056546728\\Version=EM6
 4M-G16RevA.03\State=1-A1\HF=-237.98145\RMSD=8.058e-10\RMSF=6.678e-06\Z
 eroPoint=0.0353832\Thermal=0.0384436\Dipole=0.4881416,-0.3451772,-0.59
 78542\DipoleDeriv=1.5123141,0.1008554,0.1747011,0.1008554,0.9711463,0.
 2300848,0.1747011,0.2300848,1.2368303,0.0011365,0.0213209,0.0046557,0.
 0653325,-0.123636,-0.0286553,-0.0207535,0.0432156,0.0204662,0.0011348,
 -0.0066293,0.0207951,-0.0506408,-0.0218631,0.1019727,0.0462043,0.03010
 17,-0.081305,-0.4317555,-0.0846101,-0.1465514,-0.1460422,-0.4942068,-0
 .2926629,-0.2529549,-0.2926615,-0.8321499,-1.08283,-0.0309369,-0.05360
 06,0.0304951,-0.3314404,-0.0107393,0.052803,-0.0107406,-0.3438419\Pola
 r=15.2033992,0.2017574,14.0884001,0.3494839,0.4789894,14.6414996\Polar
 Deriv=2.774053,0.0760442,-3.3195502,0.131897,0.506209,-2.7351047,0.446
 8545,-2.1590077,4.1203757,0.1389203,-0.0295983,-2.2474337,0.7741292,0.
 1389329,1.6514931,-1.9986779,-3.2180182,1.5923127,1.2937301,-1.600418,
 1.7903908,-0.0446455,-0.1186604,0.6519913,-1.9669865,1.6819544,-7.2197
 373,-0.0684705,-0.1384461,-1.289709,0.1693907,-0.0552065,-0.0992018,0.
 6244882,-0.833059,-0.1228988,1.2938256,0.761569,1.0393809,-1.4083605,-
 0.552288,1.403097,1.1302109,0.942425,1.8495967,-0.4821991,-1.6188598,2
 .2126919,-1.6187984,-0.4954676,-1.9947086,1.3640961,1.95038,-5.4856655
 ,1.413928,1.0203913,0.1508149,1.7673882,0.5280225,0.7605413,0.4579207,
 0.9918133,1.4457807,0.5043291,1.886169,1.1414317,0.7931428,0.5043221,0
 .3544295,1.5741862,2.0257731,4.1268048,-6.7755359,-0.2575869,0.3389647
 ,-0.4462786,-0.3632832,-0.0805259,-0.0679996,-1.4571853,-0.1960159,-0.
 0925799,-0.0992647,0.1830188,-0.1178642,-0.0925819,0.087988,-1.5640927
 ,0.0749246,-0.1105549\HyperPolar=15.5662086,-3.3015852,9.2744407,-20.2
 258514,-5.7186543,-3.1089285,-7.9168275,5.6847815,1.942136,-23.7507085
 \Quadrupole=-1.030122,0.7886944,0.2414275,-0.7056047,-1.222188,-0.4739
 168\PG=C02V [C2(C1),SGV(F2),SGV'(H2)]\NImag=0\\0.59225981,-0.03707829,
 0.73883491,-0.06422530,-0.05434755,0.67607793,-0.08440743,0.07526383,0
 .00352842,0.10654673,0.08450909,-0.33028701,0.02055979,-0.09148137,0.3
 5068317,-0.00180913,0.03565729,-0.07326970,0.00696494,-0.00776801,0.07
 158053,-0.08441036,-0.03457890,0.06694873,0.00978905,0.00552500,-0.007
 86609,0.10655026,-0.04382416,-0.16186531,0.13289309,-0.00957541,-0.011
 41927,0.02622758,0.05177460,0.14808159,0.07228629,0.11779559,-0.241688
 46,0.00085182,0.00156861,0.00462877,-0.07574681,-0.12473705,0.27417858
 ,-0.08793627,-0.02709478,-0.04692937,0.00863402,-0.00212027,0.00240204
 ,0.00863431,0.00314081,-0.00063454,0.11573414,-0.02028038,-0.15428707,
 -0.10315272,-0.01655734,-0.01898150,-0.05005038,0.00121371,0.01479547,
 0.00437537,0.05834816,0.15132815,-0.03512650,-0.10315288,-0.27339885,-
 0.00815799,-0.01512584,-0.01157495,-0.01841808,-0.03054880,-0.04535220
 ,0.10106315,0.15651699,0.33206131,-0.33550575,0.02348812,0.04067753,-0
 .04056239,0.00356756,0.00030824,-0.04056326,-0.00151583,0.00324322,-0.
 04506620,-0.02272415,-0.03936059,0.46169760,0.01667374,-0.09239552,0.0
 0404739,0.04235029,0.01000462,-0.00406648,-0.02393441,0.01040752,0.000
 99748,-0.03227392,0.00714496,-0.00768946,-0.00281570,0.06483843,0.0288
 7464,0.00404753,-0.08772092,-0.00318720,0.00076546,0.00863534,0.035082
 24,-0.00383480,0.00823331,-0.05590129,-0.00768926,-0.00173531,-0.00486
 839,0.00671108,0.07258757\\0.00001273,-0.00000900,-0.00001559,-0.00000
 353,0.00000288,0.00000410,-0.00000353,0.00000211,0.00000455,0.00000160
 ,0.00000358,0.00000619,-0.00000728,0.00000044,0.00000076\\\@


 EXPERIENCE IS THE FRUIT OF THE TREE OF ERRORS.
 Job cpu time:       0 days  0 hours  0 minutes  4.4 seconds.
 Elapsed time:       0 days  0 hours  0 minutes  3.8 seconds.
 File lengths (MBytes):  RWF=     11 Int=      0 D2E=      0 Chk=      2 Scr=      1
 Normal termination of Gaussian 16 at Fri Sep  6 11:00:31 2024.
