 Entering Gaussian System, Link 0=g16
 Input=/Users/asuyarger/Downloads/r32_DFT_WB97XD_apVTZ_Opt_Freq_Full_NBO_Raman.gjf
 Output=/Users/asuyarger/Downloads/r32_DFT_WB97XD_apVTZ_Opt_Freq_Full_NBO_Raman.log
 Initial command:
 /Users/asuyarger/Applications/G16/g16/l1.exe "/Users/asuyarger/Applications/G16/scratch/Gau-92795.inp" -scrdir="/Users/asuyarger/Applications/G16/scratch/"
 Entering Link 1 = /Users/asuyarger/Applications/G16/g16/l1.exe PID=     92796.
  
 Copyright (c) 1988,1990,1992,1993,1995,1998,2003,2009,2016,
            Gaussian, Inc.  All Rights Reserved.
  
 This is part of the Gaussian(R) 16 program.  It is based on
 the Gaussian(R) 09 system (copyright 2009, Gaussian, Inc.),
 the Gaussian(R) 03 system (copyright 2003, Gaussian, Inc.),
 the Gaussian(R) 98 system (copyright 1998, Gaussian, Inc.),
 the Gaussian(R) 94 system (copyright 1995, Gaussian, Inc.),
 the Gaussian 92(TM) system (copyright 1992, Gaussian, Inc.),
 the Gaussian 90(TM) system (copyright 1990, Gaussian, Inc.),
 the Gaussian 88(TM) system (copyright 1988, Gaussian, Inc.),
 the Gaussian 86(TM) system (copyright 1986, Carnegie Mellon
 University), and the Gaussian 82(TM) system (copyright 1983,
 Carnegie Mellon University). Gaussian is a federally registered
 trademark of Gaussian, Inc.
  
 This software contains proprietary and confidential information,
 including trade secrets, belonging to Gaussian, Inc.
  
 This software is provided under written license and may be
 used, copied, transmitted, or stored only in accord with that
 written license.
  
 The following legend is applicable only to US Government
 contracts under FAR:
  
                    RESTRICTED RIGHTS LEGEND
  
 Use, reproduction and disclosure by the US Government is
 subject to restrictions as set forth in subparagraphs (a)
 and (c) of the Commercial Computer Software - Restricted
 Rights clause in FAR 52.227-19.
  
 Gaussian, Inc.
 340 Quinnipiac St., Bldg. 40, Wallingford CT 06492
  
  
 ---------------------------------------------------------------
 Warning -- This program may not be used in any manner that
 competes with the business of Gaussian, Inc. or will provide
 assistance to any competitor of Gaussian, Inc.  The licensee
 of this program is prohibited from giving any competitor of
 Gaussian, Inc. access to this program.  By using this program,
 the user acknowledges that Gaussian, Inc. is engaged in the
 business of creating and licensing software in the field of
 computational chemistry and represents and warrants to the
 licensee that it is not a competitor of Gaussian, Inc. and that
 it will not use this program in any manner prohibited above.
 ---------------------------------------------------------------
  

 Cite this work as:
 Gaussian 16, Revision A.03,
 M. J. Frisch, G. W. Trucks, H. B. Schlegel, G. E. Scuseria, 
 M. A. Robb, J. R. Cheeseman, G. Scalmani, V. Barone, 
 G. A. Petersson, H. Nakatsuji, X. Li, M. Caricato, A. V. Marenich, 
 J. Bloino, B. G. Janesko, R. Gomperts, B. Mennucci, H. P. Hratchian, 
 J. V. Ortiz, A. F. Izmaylov, J. L. Sonnenberg, D. Williams-Young, 
 F. Ding, F. Lipparini, F. Egidi, J. Goings, B. Peng, A. Petrone, 
 T. Henderson, D. Ranasinghe, V. G. Zakrzewski, J. Gao, N. Rega, 
 G. Zheng, W. Liang, M. Hada, M. Ehara, K. Toyota, R. Fukuda, 
 J. Hasegawa, M. Ishida, T. Nakajima, Y. Honda, O. Kitao, H. Nakai, 
 T. Vreven, K. Throssell, J. A. Montgomery, Jr., J. E. Peralta, 
 F. Ogliaro, M. J. Bearpark, J. J. Heyd, E. N. Brothers, K. N. Kudin, 
 V. N. Staroverov, T. A. Keith, R. Kobayashi, J. Normand, 
 K. Raghavachari, A. P. Rendell, J. C. Burant, S. S. Iyengar, 
 J. Tomasi, M. Cossi, J. M. Millam, M. Klene, C. Adamo, R. Cammi, 
 J. W. Ochterski, R. L. Martin, K. Morokuma, O. Farkas, 
 J. B. Foresman, and D. J. Fox, Gaussian, Inc., Wallingford CT, 2016.
 
 ******************************************
 Gaussian 16:  EM64M-G16RevA.03 25-Dec-2016
                 6-Sep-2024 
 ******************************************
 %nprocshared=12
 Will use up to   12 processors via shared memory.
 %mem=12GB
 %chk=r32_DFT_WB97XD_apVTZ_Opt_Freq_Full_NBO_Raman.chk
 ----------------------------------------------------------------------
 #p opt=tight freq=raman wb97xd/aug-cc-pvtz guess=save pop=(hirshfeld,f
 ull,nbo) geom=connectivity polar
 ----------------------------------------------------------------------
 1/7=10,18=20,19=15,26=3,38=1,57=2/1,3;
 2/9=110,12=2,17=6,18=5,40=1/2;
 3/5=16,6=1,7=10,11=2,25=1,30=1,71=1,74=-58/1,2,3;
 4//1;
 5/5=2,38=5,98=1/2;
 6/7=3,28=1,40=1,79=1/1,7;
 7//1,2,3,16;
 1/7=10,18=20,19=15,26=3/3(2);
 2/9=110/2;
 99//99;
 2/9=110/2;
 3/5=16,6=1,7=10,11=2,25=1,30=1,71=1,74=-58/1,2,3;
 4/5=5,16=3,69=1/1;
 5/5=2,38=5,98=1/2;
 7//1,2,3,16;
 1/7=10,18=20,19=15,26=3/3(-5);
 2/9=110/2;
 6/7=3,19=2,28=1,40=1,79=1/1,7;
 99/9=1/99;
 Leave Link    1 at Fri Sep  6 16:27:17 2024, MaxMem=  1610612736 cpu:               0.3 elap:               0.0
 (Enter /Users/asuyarger/Applications/G16/g16/l101.exe)
 ------------------------------------------------
 R32 DFT WB97XD aug-cc-pVTZ Opt Freq - Full - NBO
 ------------------------------------------------
 Symbolic Z-matrix:
 Charge =  0 Multiplicity = 1
 C                    -0.93128   0.8047    0. 
 H                    -0.57463  -0.20411  0. 
 H                    -0.57461   1.3091   -0.87365 
 F                    -0.48128   1.44109   1.10227 
 F                    -2.28128   0.80472  0. 
 
 ITRead=  0  0  0  0  0
 MicOpt= -1 -1 -1 -1 -1
 NAtoms=      5 NQM=        5 NQMF=       0 NMMI=      0 NMMIF=      0
                NMic=       0 NMicF=      0.
                    Isotopes and Nuclear Properties:
 (Nuclear quadrupole moments (NQMom) in fm**2, nuclear magnetic moments (NMagM)
  in nuclear magnetons)

  Atom         1           2           3           4           5
 IAtWgt=          12           1           1          19          19
 AtmWgt=  12.0000000   1.0078250   1.0078250  18.9984033  18.9984033
 NucSpn=           0           1           1           1           1
 AtZEff=  -0.0000000  -0.0000000  -0.0000000  -0.0000000  -0.0000000
 NQMom=    0.0000000   0.0000000   0.0000000   0.0000000   0.0000000
 NMagM=    0.0000000   2.7928460   2.7928460   2.6288670   2.6288670
 AtZNuc=   6.0000000   1.0000000   1.0000000   9.0000000   9.0000000
 Leave Link  101 at Fri Sep  6 16:27:17 2024, MaxMem=  1610612736 cpu:               2.4 elap:               0.2
 (Enter /Users/asuyarger/Applications/G16/g16/l103.exe)

 GradGradGradGradGradGradGradGradGradGradGradGradGradGradGradGradGradGrad
 Berny optimization.
 Initialization pass.
                           ----------------------------
                           !    Initial Parameters    !
                           ! (Angstroms and Degrees)  !
 --------------------------                            --------------------------
 ! Name  Definition              Value          Derivative Info.                !
 --------------------------------------------------------------------------------
 ! R1    R(1,2)                  1.07           estimate D2E/DX2                !
 ! R2    R(1,3)                  1.07           estimate D2E/DX2                !
 ! R3    R(1,4)                  1.35           estimate D2E/DX2                !
 ! R4    R(1,5)                  1.35           estimate D2E/DX2                !
 ! A1    A(2,1,3)              109.4712         estimate D2E/DX2                !
 ! A2    A(2,1,4)              109.4712         estimate D2E/DX2                !
 ! A3    A(2,1,5)              109.4712         estimate D2E/DX2                !
 ! A4    A(3,1,4)              109.4712         estimate D2E/DX2                !
 ! A5    A(3,1,5)              109.4712         estimate D2E/DX2                !
 ! A6    A(4,1,5)              109.4712         estimate D2E/DX2                !
 ! D1    D(2,1,4,3)            120.0            estimate D2E/DX2                !
 ! D2    D(2,1,5,3)           -120.0            estimate D2E/DX2                !
 ! D3    D(2,1,5,4)            120.0            estimate D2E/DX2                !
 ! D4    D(3,1,5,4)           -120.0            estimate D2E/DX2                !
 --------------------------------------------------------------------------------
 Trust Radius=3.00D-01 FncErr=1.00D-07 GrdErr=1.00D-06 EigMax=2.50D+02 EigMin=1.00D-04
 Number of steps in this run=     24 maximum allowed number of steps=    100.
 GradGradGradGradGradGradGradGradGradGradGradGradGradGradGradGradGradGrad

 Leave Link  103 at Fri Sep  6 16:27:17 2024, MaxMem=  1610612736 cpu:               0.1 elap:               0.0
 (Enter /Users/asuyarger/Applications/G16/g16/l202.exe)
                          Input orientation:                          
 ---------------------------------------------------------------------
 Center     Atomic      Atomic             Coordinates (Angstroms)
 Number     Number       Type             X           Y           Z
 ---------------------------------------------------------------------
      1          6           0       -0.931284    0.804702    0.000000
      2          1           0       -0.574630   -0.204109   -0.000000
      3          1           0       -0.574611    1.309100   -0.873651
      4          9           0       -0.481276    1.441092    1.102270
      5          9           0       -2.281284    0.804718   -0.000000
 ---------------------------------------------------------------------
                    Distance matrix (angstroms):
                    1          2          3          4          5
     1  C    0.000000
     2  H    1.070000   0.000000
     3  H    1.070000   1.747303   0.000000
     4  F    1.350000   1.982524   1.982524   0.000000
     5  F    1.350000   1.982524   1.982524   2.204541   0.000000
 Stoichiometry    CH2F2
 Framework group  C2V[C2(C),SGV(F2),SGV'(H2)]
 Deg. of freedom     4
 Full point group                 C2V     NOp   4
 Largest Abelian subgroup         C2V     NOp   4
 Largest concise Abelian subgroup C2V     NOp   4
                         Standard orientation:                         
 ---------------------------------------------------------------------
 Center     Atomic      Atomic             Coordinates (Angstroms)
 Number     Number       Type             X           Y           Z
 ---------------------------------------------------------------------
      1          6           0       -0.000000    0.000000    0.492080
      2          1           0       -0.873651    0.000000    1.109845
      3          1           0        0.873651    0.000000    1.109845
      4          9           0        0.000000    1.102270   -0.287343
      5          9           0       -0.000000   -1.102270   -0.287343
 ---------------------------------------------------------------------
 Rotational constants (GHZ):          50.9657562          10.5939265           9.2655813
 Leave Link  202 at Fri Sep  6 16:27:17 2024, MaxMem=  1610612736 cpu:               0.1 elap:               0.0
 (Enter /Users/asuyarger/Applications/G16/g16/l301.exe)
 Standard basis: Aug-CC-pVTZ (5D, 7F)
 Ernie: Thresh=  0.10000D-02 Tol=  0.10000D-05 Strict=F.
 Ernie:  9 primitive shells out of 112 were deleted.
 There are    79 symmetry adapted cartesian basis functions of A1  symmetry.
 There are    30 symmetry adapted cartesian basis functions of A2  symmetry.
 There are    49 symmetry adapted cartesian basis functions of B1  symmetry.
 There are    57 symmetry adapted cartesian basis functions of B2  symmetry.
 There are    65 symmetry adapted basis functions of A1  symmetry.
 There are    28 symmetry adapted basis functions of A2  symmetry.
 There are    43 symmetry adapted basis functions of B1  symmetry.
 There are    48 symmetry adapted basis functions of B2  symmetry.
   184 basis functions,   270 primitive gaussians,   215 cartesian basis functions
    13 alpha electrons       13 beta electrons
       nuclear repulsion energy        77.6240968989 Hartrees.
 IExCor= 4639 DFT=T Ex+Corr=wB97XD ExCW=0 ScaHFX=  1.000000
 ScaDFX=  1.000000  1.000000  1.000000  1.000000 ScalE2=  1.000000  1.000000
 IRadAn=      5 IRanWt=     -1 IRanGd=            0 ICorTp=0 IEmpDi=121
 HFx  wShort=  0.000000 wLong=  0.200000 cFull=  0.222036 cShort=  0.000000 cLong=  0.777964
 DFx  wShort=  0.000000 wLong=  0.200000 cFull=  0.000000 cShort=  0.000000 cLong=  1.000000
 NAtoms=    5 NActive=    5 NUniq=    3 SFac= 2.78D+00 NAtFMM=   60 NAOKFM=F Big=F
 Integral buffers will be    131072 words long.
 Raffenetti 2 integral format.
 Two-electron integral symmetry is turned on.
 R6Disp:  Grimme-D2 Dispersion energy=       -0.0003646846 Hartrees.
 Nuclear repulsion after empirical dispersion term =       77.6237322143 Hartrees.
 Leave Link  301 at Fri Sep  6 16:27:17 2024, MaxMem=  1610612736 cpu:               0.2 elap:               0.0
 (Enter /Users/asuyarger/Applications/G16/g16/l302.exe)
 NPDir=0 NMtPBC=     1 NCelOv=     1 NCel=       1 NClECP=     1 NCelD=      1
         NCelK=      1 NCelE2=     1 NClLst=     1 CellRange=     0.0.
 One-electron integrals computed using PRISM.
 One-electron integral symmetry used in STVInt
 NBasis=   184 RedAO= T EigKep=  7.26D-05  NBF=    65    28    43    48
 NBsUse=   184 1.00D-06 EigRej= -1.00D+00 NBFU=    65    28    43    48
 Precomputing XC quadrature grid using
 IXCGrd= 4 IRadAn=           5 IRanWt=          -1 IRanGd=           0 AccXCQ= 0.00D+00.
 Generated NRdTot=       0 NPtTot=           0 NUsed=           0 NTot=          32
 NSgBfM=   215   215   215   215   215 MxSgAt=     5 MxSgA2=     5.
 Leave Link  302 at Fri Sep  6 16:27:17 2024, MaxMem=  1610612736 cpu:               1.2 elap:               0.1
 (Enter /Users/asuyarger/Applications/G16/g16/l303.exe)
 DipDrv:  MaxL=1.
 Leave Link  303 at Fri Sep  6 16:27:17 2024, MaxMem=  1610612736 cpu:               0.2 elap:               0.0
 (Enter /Users/asuyarger/Applications/G16/g16/l401.exe)
 ExpMin= 2.53D-02 ExpMax= 1.95D+04 ExpMxC= 6.65D+02 IAcc=3 IRadAn=         5 AccDes= 0.00D+00
 Harris functional with IExCor= 4639 and IRadAn=       5 diagonalized for initial guess.
 HarFok:  IExCor= 4639 AccDes= 0.00D+00 IRadAn=         5 IDoV= 1 UseB2=F ITyADJ=14
 ICtDFT=  3500011 ScaDFX=  1.000000  1.000000  1.000000  1.000000
 FoFCou: FMM=F IPFlag=           0 FMFlag=      100000 FMFlg1=           0
         NFxFlg=           0 DoJE=T BraDBF=F KetDBF=T FulRan=T
         wScrn=  0.000000 ICntrl=       500 IOpCl=  0 I1Cent=   200000004 NGrid=           0
         NMat0=    1 NMatS0=      1 NMatT0=    0 NMatD0=    1 NMtDS0=    0 NMtDT0=    0
 Petite list used in FoFCou.
 Harris En= -231.090637375030    
 JPrj=0 DoOrth=F DoCkMO=F.
 Initial guess orbital symmetries:
       Occupied  (B2) (A1) (A1) (A1) (B2) (A1) (B1) (A1) (B2) (A1)
                 (A2) (B2) (B1)
       Virtual   (A1) (B1) (A1) (B2) (B1) (A1) (A1) (B2) (A1) (A2)
                 (B2) (B1) (A1) (A1) (B2) (B1) (A2) (B1) (A1) (B2)
                 (B1) (A1) (A1) (B2) (B1) (A1) (B2) (A2) (A1) (B1)
                 (A1) (B2) (A1) (B1) (A2) (A1) (B1) (A1) (B1) (A1)
                 (A2) (B2) (B2) (A1) (B2) (A2) (B1) (B2) (B1) (A1)
                 (B1) (A1) (B2) (A2) (A1) (A2) (B2) (A1) (A1) (B1)
                 (B2) (A1) (B1) (A1) (A2) (B1) (B2) (A1) (A2) (B1)
                 (B2) (A1) (B2) (B1) (A2) (B1) (B2) (A1) (A1) (B2)
                 (A1) (A2) (B2) (A1) (B2) (B1) (B1) (B2) (A1) (A1)
                 (A2) (B2) (A1) (B1) (A2) (A1) (B1) (A1) (B2) (A2)
                 (B1) (A1) (A2) (B1) (B2) (B2) (A1) (A2) (B1) (B2)
                 (B1) (A1) (A1) (B1) (B2) (A2) (A1) (B1) (B2) (A1)
                 (A1) (A1) (A1) (A2) (B2) (B1) (B2) (B2) (A2) (B1)
                 (B1) (A1) (B2) (A2) (A1) (A1) (A2) (B1) (B2) (B1)
                 (A1) (B1) (A1) (B2) (B2) (A2) (A1) (B1) (A1) (A2)
                 (B2) (A1) (B1) (A2) (B2) (B2) (B1) (A1) (A2) (B1)
                 (A1) (B2) (B2) (B1) (A1) (A2) (B2) (A1) (A1) (B2)
                 (A1)
 The electronic state of the initial guess is 1-A1.
 Leave Link  401 at Fri Sep  6 16:27:18 2024, MaxMem=  1610612736 cpu:               1.9 elap:               0.2
 (Enter /Users/asuyarger/Applications/G16/g16/l502.exe)
 Keep R1 ints in memory in symmetry-blocked form, NReq=362505873.
 FoFCou: FMM=F IPFlag=           0 FMFlag=           0 FMFlg1=           0
         NFxFlg=           0 DoJE=F BraDBF=F KetDBF=F FulRan=T
         wScrn=  0.000000 ICntrl=       600 IOpCl=  0 I1Cent=           0 NGrid=           0
         NMat0=    1 NMatS0=  17020 NMatT0=    0 NMatD0=    1 NMtDS0=    0 NMtDT0=    0
 Petite list used in FoFCou.
 Closed shell SCF:
 Using DIIS extrapolation, IDIIS=  1040.
 NGot=  1610612736 LenX=  1574092333 LenY=  1574045667
 Requested convergence on RMS density matrix=1.00D-08 within 128 cycles.
 Requested convergence on MAX density matrix=1.00D-06.
 Requested convergence on             energy=1.00D-06.
 No special actions if energy rises.

 Cycle   1  Pass 1  IDiag  1:
 E= -238.831267819444    
 DIIS: error= 5.78D-02 at cycle   1 NSaved=   1.
 NSaved= 1 IEnMin= 1 EnMin= -238.831267819444     IErMin= 1 ErrMin= 5.78D-02
 ErrMax= 5.78D-02  0.00D+00 EMaxC= 1.00D-01 BMatC= 5.74D-01 BMatP= 5.74D-01
 IDIUse=3 WtCom= 4.22D-01 WtEn= 5.78D-01
 Coeff-Com:  0.100D+01
 Coeff-En:   0.100D+01
 Coeff:      0.100D+01
 Gap=     0.618 Goal=   None    Shift=    0.000
 GapD=    0.618 DampG=2.000 DampE=0.500 DampFc=1.0000 IDamp=-1.
 RMSDP=2.80D-03 MaxDP=8.45D-02              OVMax= 1.37D-01

 Cycle   2  Pass 1  IDiag  1:
 E= -238.853626674855     Delta-E=       -0.022358855411 Rises=F Damp=F
 DIIS: error= 4.57D-02 at cycle   2 NSaved=   2.
 NSaved= 2 IEnMin= 2 EnMin= -238.853626674855     IErMin= 2 ErrMin= 4.57D-02
 ErrMax= 4.57D-02  0.00D+00 EMaxC= 1.00D-01 BMatC= 3.54D-01 BMatP= 5.74D-01
 IDIUse=3 WtCom= 5.43D-01 WtEn= 4.57D-01
 Coeff-Com:  0.431D+00 0.569D+00
 Coeff-En:   0.465D+00 0.535D+00
 Coeff:      0.447D+00 0.553D+00
 Gap=     0.513 Goal=   None    Shift=    0.000
 RMSDP=1.39D-03 MaxDP=4.44D-02 DE=-2.24D-02 OVMax= 8.21D-02

 Cycle   3  Pass 1  IDiag  1:
 E= -239.011137076558     Delta-E=       -0.157510401703 Rises=F Damp=F
 DIIS: error= 6.68D-03 at cycle   3 NSaved=   3.
 NSaved= 3 IEnMin= 3 EnMin= -239.011137076558     IErMin= 3 ErrMin= 6.68D-03
 ErrMax= 6.68D-03  0.00D+00 EMaxC= 1.00D-01 BMatC= 8.39D-03 BMatP= 3.54D-01
 IDIUse=3 WtCom= 9.33D-01 WtEn= 6.68D-02
 Coeff-Com:  0.364D-01 0.145D+00 0.818D+00
 Coeff-En:   0.000D+00 0.000D+00 0.100D+01
 Coeff:      0.339D-01 0.136D+00 0.830D+00
 Gap=     0.468 Goal=   None    Shift=    0.000
 RMSDP=3.06D-04 MaxDP=7.75D-03 DE=-1.58D-01 OVMax= 2.03D-02

 Cycle   4  Pass 1  IDiag  1:
 E= -239.015240913662     Delta-E=       -0.004103837104 Rises=F Damp=F
 DIIS: error= 2.99D-03 at cycle   4 NSaved=   4.
 NSaved= 4 IEnMin= 4 EnMin= -239.015240913662     IErMin= 4 ErrMin= 2.99D-03
 ErrMax= 2.99D-03  0.00D+00 EMaxC= 1.00D-01 BMatC= 9.15D-04 BMatP= 8.39D-03
 IDIUse=3 WtCom= 9.70D-01 WtEn= 2.99D-02
 Coeff-Com: -0.396D-03 0.273D-01 0.334D+00 0.639D+00
 Coeff-En:   0.000D+00 0.000D+00 0.441D-02 0.996D+00
 Coeff:     -0.385D-03 0.264D-01 0.324D+00 0.649D+00
 Gap=     0.470 Goal=   None    Shift=    0.000
 RMSDP=9.93D-05 MaxDP=3.41D-03 DE=-4.10D-03 OVMax= 5.75D-03

 Cycle   5  Pass 1  IDiag  1:
 E= -239.015864396609     Delta-E=       -0.000623482947 Rises=F Damp=F
 DIIS: error= 1.69D-04 at cycle   5 NSaved=   5.
 NSaved= 5 IEnMin= 5 EnMin= -239.015864396609     IErMin= 5 ErrMin= 1.69D-04
 ErrMax= 1.69D-04  0.00D+00 EMaxC= 1.00D-01 BMatC= 3.19D-06 BMatP= 9.15D-04
 IDIUse=3 WtCom= 9.98D-01 WtEn= 1.69D-03
 Coeff-Com: -0.668D-03-0.826D-02-0.640D-01-0.588D-01 0.113D+01
 Coeff-En:   0.000D+00 0.000D+00 0.000D+00 0.000D+00 0.100D+01
 Coeff:     -0.667D-03-0.825D-02-0.639D-01-0.587D-01 0.113D+01
 Gap=     0.469 Goal=   None    Shift=    0.000
 RMSDP=3.16D-05 MaxDP=8.96D-04 DE=-6.23D-04 OVMax= 1.05D-03

 Cycle   6  Pass 1  IDiag  1:
 E= -239.015869857424     Delta-E=       -0.000005460816 Rises=F Damp=F
 DIIS: error= 1.88D-05 at cycle   6 NSaved=   6.
 NSaved= 6 IEnMin= 6 EnMin= -239.015869857424     IErMin= 6 ErrMin= 1.88D-05
 ErrMax= 1.88D-05  0.00D+00 EMaxC= 1.00D-01 BMatC= 4.09D-08 BMatP= 3.19D-06
 IDIUse=1 WtCom= 1.00D+00 WtEn= 0.00D+00
 Coeff-Com: -0.170D-05-0.291D-03-0.421D-02-0.113D-01-0.162D-01 0.103D+01
 Coeff:     -0.170D-05-0.291D-03-0.421D-02-0.113D-01-0.162D-01 0.103D+01
 Gap=     0.469 Goal=   None    Shift=    0.000
 RMSDP=2.71D-06 MaxDP=6.12D-05 DE=-5.46D-06 OVMax= 1.78D-04

 Cycle   7  Pass 1  IDiag  1:
 E= -239.015869955645     Delta-E=       -0.000000098221 Rises=F Damp=F
 DIIS: error= 6.58D-06 at cycle   7 NSaved=   7.
 NSaved= 7 IEnMin= 7 EnMin= -239.015869955645     IErMin= 7 ErrMin= 6.58D-06
 ErrMax= 6.58D-06  0.00D+00 EMaxC= 1.00D-01 BMatC= 2.77D-09 BMatP= 4.09D-08
 IDIUse=1 WtCom= 1.00D+00 WtEn= 0.00D+00
 Coeff-Com:  0.706D-05 0.163D-03 0.194D-02 0.226D-02-0.287D-01-0.105D+00
 Coeff-Com:  0.113D+01
 Coeff:      0.706D-05 0.163D-03 0.194D-02 0.226D-02-0.287D-01-0.105D+00
 Coeff:      0.113D+01
 Gap=     0.469 Goal=   None    Shift=    0.000
 RMSDP=6.35D-07 MaxDP=2.20D-05 DE=-9.82D-08 OVMax= 4.49D-05

 Cycle   8  Pass 1  IDiag  1:
 E= -239.015869961125     Delta-E=       -0.000000005480 Rises=F Damp=F
 DIIS: error= 6.23D-07 at cycle   8 NSaved=   8.
 NSaved= 8 IEnMin= 8 EnMin= -239.015869961125     IErMin= 8 ErrMin= 6.23D-07
 ErrMax= 6.23D-07  0.00D+00 EMaxC= 1.00D-01 BMatC= 8.88D-11 BMatP= 2.77D-09
 IDIUse=1 WtCom= 1.00D+00 WtEn= 0.00D+00
 Coeff-Com:  0.506D-06 0.181D-04 0.245D-03 0.603D-03-0.213D-03-0.562D-01
 Coeff-Com:  0.963D-01 0.959D+00
 Coeff:      0.506D-06 0.181D-04 0.245D-03 0.603D-03-0.213D-03-0.562D-01
 Coeff:      0.963D-01 0.959D+00
 Gap=     0.469 Goal=   None    Shift=    0.000
 RMSDP=8.97D-08 MaxDP=4.26D-06 DE=-5.48D-09 OVMax= 6.36D-06

 Cycle   9  Pass 1  IDiag  1:
 E= -239.015869961262     Delta-E=       -0.000000000137 Rises=F Damp=F
 DIIS: error= 1.75D-07 at cycle   9 NSaved=   9.
 NSaved= 9 IEnMin= 9 EnMin= -239.015869961262     IErMin= 9 ErrMin= 1.75D-07
 ErrMax= 1.75D-07  0.00D+00 EMaxC= 1.00D-01 BMatC= 4.68D-12 BMatP= 8.88D-11
 IDIUse=1 WtCom= 1.00D+00 WtEn= 0.00D+00
 Coeff-Com:  0.330D-06-0.333D-06-0.562D-04-0.926D-04 0.829D-03 0.515D-02
 Coeff-Com: -0.370D-01-0.312D-01 0.106D+01
 Coeff:      0.330D-06-0.333D-06-0.562D-04-0.926D-04 0.829D-03 0.515D-02
 Coeff:     -0.370D-01-0.312D-01 0.106D+01
 Gap=     0.469 Goal=   None    Shift=    0.000
 RMSDP=2.82D-08 MaxDP=6.80D-07 DE=-1.37D-10 OVMax= 8.56D-07

 Cycle  10  Pass 1  IDiag  1:
 E= -239.015869961264     Delta-E=       -0.000000000002 Rises=F Damp=F
 DIIS: error= 2.03D-08 at cycle  10 NSaved=  10.
 NSaved=10 IEnMin=10 EnMin= -239.015869961264     IErMin=10 ErrMin= 2.03D-08
 ErrMax= 2.03D-08  0.00D+00 EMaxC= 1.00D-01 BMatC= 2.65D-14 BMatP= 4.68D-12
 IDIUse=1 WtCom= 1.00D+00 WtEn= 0.00D+00
 Coeff-Com: -0.572D-07-0.426D-06 0.543D-06-0.311D-05-0.428D-04 0.172D-03
 Coeff-Com:  0.218D-02-0.113D-01-0.926D-01 0.110D+01
 Coeff:     -0.572D-07-0.426D-06 0.543D-06-0.311D-05-0.428D-04 0.172D-03
 Coeff:      0.218D-02-0.113D-01-0.926D-01 0.110D+01
 Gap=     0.469 Goal=   None    Shift=    0.000
 RMSDP=3.65D-09 MaxDP=7.29D-08 DE=-1.71D-12 OVMax= 1.27D-07

 SCF Done:  E(RwB97XD) =  -239.015869961     A.U. after   10 cycles
            NFock= 10  Conv=0.37D-08     -V/T= 2.0047
 KE= 2.379046503530D+02 PE=-7.231381493757D+02 EE= 1.685938968471D+02
 Leave Link  502 at Fri Sep  6 16:27:20 2024, MaxMem=  1610612736 cpu:              26.0 elap:               2.4
 (Enter /Users/asuyarger/Applications/G16/g16/l601.exe)
 Copying SCF densities to generalized density rwf, IOpCl= 0 IROHF=0.

 **********************************************************************

            Population analysis using the SCF density.

 **********************************************************************

 Orbital symmetries:
       Occupied  (B2) (A1) (A1) (A1) (B2) (A1) (A1) (B1) (B2) (A2)
                 (A1) (B2) (B1)
       Virtual   (A1) (B1) (B2) (A1) (B1) (A1) (A1) (B2) (A1) (A2)
                 (B2) (B1) (A1) (A1) (B2) (B1) (A2) (B1) (A1) (B2)
                 (A1) (B1) (A1) (B2) (B1) (A1) (B2) (A2) (A1) (B1)
                 (A1) (B2) (A1) (B1) (A2) (A1) (B1) (A1) (B1) (A1)
                 (B2) (A2) (B2) (A1) (B2) (A2) (B1) (B2) (B1) (A1)
                 (B1) (A1) (A2) (B2) (A1) (A2) (B2) (A1) (A1) (B1)
                 (B2) (A1) (B1) (A1) (A2) (B1) (B2) (A1) (B1) (A2)
                 (B2) (A1) (B2) (B1) (A2) (B1) (A1) (B2) (A1) (B2)
                 (A1) (A2) (B2) (B2) (A1) (B1) (B1) (B2) (A1) (A1)
                 (A2) (B2) (A1) (B1) (A2) (A1) (B1) (A1) (B2) (A2)
                 (A1) (B1) (A2) (B1) (B2) (B2) (A1) (A2) (B1) (B2)
                 (B1) (A1) (A1) (B1) (B2) (A2) (A1) (B1) (B2) (A1)
                 (A1) (A1) (A1) (A2) (B2) (B1) (B2) (B2) (A2) (B1)
                 (B1) (A1) (B2) (A2) (A1) (A1) (A2) (B1) (B2) (B1)
                 (A1) (B1) (A1) (B2) (B2) (A2) (A1) (B1) (A1) (A2)
                 (B2) (A1) (B1) (A2) (B2) (B2) (A1) (B1) (A2) (B1)
                 (A1) (B2) (B2) (B1) (A1) (A2) (B2) (A1) (A1) (B2)
                 (A1)
 The electronic state is 1-A1.
 Alpha  occ. eigenvalues --  -24.82802 -24.82801 -10.44496  -1.36837  -1.31148
 Alpha  occ. eigenvalues --   -0.81656  -0.65004  -0.64923  -0.64364  -0.52489
 Alpha  occ. eigenvalues --   -0.51239  -0.50332  -0.43762
 Alpha virt. eigenvalues --    0.03125   0.04636   0.07525   0.07740   0.12679
 Alpha virt. eigenvalues --    0.12963   0.18166   0.18637   0.19566   0.19854
 Alpha virt. eigenvalues --    0.19981   0.20787   0.22677   0.28566   0.29669
 Alpha virt. eigenvalues --    0.30407   0.31804   0.33022   0.33555   0.35535
 Alpha virt. eigenvalues --    0.36865   0.37259   0.39560   0.40792   0.42480
 Alpha virt. eigenvalues --    0.43631   0.44789   0.49554   0.51794   0.56958
 Alpha virt. eigenvalues --    0.62452   0.63483   0.64101   0.73954   0.76977
 Alpha virt. eigenvalues --    0.81431   0.84594   0.86956   0.89961   0.90774
 Alpha virt. eigenvalues --    0.91481   0.92095   0.95156   0.96608   0.98601
 Alpha virt. eigenvalues --    0.99575   1.00367   1.00970   1.04985   1.10793
 Alpha virt. eigenvalues --    1.11664   1.13398   1.14315   1.14315   1.16968
 Alpha virt. eigenvalues --    1.17376   1.17625   1.19558   1.27457   1.40425
 Alpha virt. eigenvalues --    1.42916   1.44001   1.47080   1.50611   1.52843
 Alpha virt. eigenvalues --    1.54885   1.55805   1.60947   1.61274   1.61643
 Alpha virt. eigenvalues --    1.62446   1.68377   1.69972   1.77831   1.85128
 Alpha virt. eigenvalues --    1.87711   1.95338   1.95397   2.29223   2.42851
 Alpha virt. eigenvalues --    2.46360   2.62113   2.66559   2.69522   2.69526
 Alpha virt. eigenvalues --    2.69672   2.73490   2.75696   2.79363   2.83833
 Alpha virt. eigenvalues --    2.87334   2.90004   2.93282   2.93602   2.97153
 Alpha virt. eigenvalues --    3.01761   3.10496   3.17602   3.18521   3.20358
 Alpha virt. eigenvalues --    3.20382   3.21105   3.30748   3.31823   3.33097
 Alpha virt. eigenvalues --    3.38071   3.42863   3.48310   3.59608   3.60385
 Alpha virt. eigenvalues --    3.63096   3.74178   3.77992   3.82540   3.83711
 Alpha virt. eigenvalues --    3.87387   3.95221   4.04796   4.15374   4.18295
 Alpha virt. eigenvalues --    4.29693   4.35893   4.49537   4.49650   4.51177
 Alpha virt. eigenvalues --    4.59977   4.62600   4.64136   4.65281   4.75177
 Alpha virt. eigenvalues --    4.91855   5.03331   5.20287   5.32735   5.34807
 Alpha virt. eigenvalues --    5.38326   5.38685   5.39498   5.39536   5.79002
 Alpha virt. eigenvalues --    5.80802   6.25303   6.62764   6.81071   8.43868
 Alpha virt. eigenvalues --    8.48228   8.48932   8.52379   8.66432   8.67454
 Alpha virt. eigenvalues --    8.78569   8.82989   8.84444   8.87308   8.87566
 Alpha virt. eigenvalues --    8.89109   8.91488   8.91926   8.93350   8.94230
 Alpha virt. eigenvalues --    8.96897   9.08107   9.13947   9.26947   9.27044
 Alpha virt. eigenvalues --    9.36797   9.37093   9.52244  14.26215  14.69388
 Alpha virt. eigenvalues --   16.92206
     Molecular Orbital Coefficients:
                           1         2         3         4         5
                        (B2)--O   (A1)--O   (A1)--O   (A1)--O   (B2)--O
     Eigenvalues --   -24.82802 -24.82801 -10.44496  -1.36837  -1.31148
   1 1   C  1S          0.00000   0.00025   0.97883  -0.08018   0.00000
   2        2S          0.00000   0.00161   0.01768   0.17315   0.00000
   3        3S          0.00000  -0.00060   0.05109   0.04501   0.00000
   4        4S          0.00000  -0.00301  -0.00862  -0.07241   0.00000
   5        5S          0.00000   0.00231  -0.00247  -0.01221   0.00000
   6        6PX         0.00000   0.00000   0.00000   0.00000   0.00000
   7        6PY        -0.00027   0.00000   0.00000   0.00000   0.07885
   8        6PZ         0.00000   0.00024  -0.00181  -0.04880   0.00000
   9        7PX         0.00000   0.00000   0.00000   0.00000   0.00000
  10        7PY         0.00352   0.00000   0.00000   0.00000   0.06880
  11        7PZ         0.00000  -0.00366   0.00771  -0.04577   0.00000
  12        8PX         0.00000   0.00000   0.00000   0.00000   0.00000
  13        8PY         0.00156   0.00000   0.00000   0.00000  -0.01032
  14        8PZ         0.00000  -0.00219   0.00645  -0.00218   0.00000
  15        9PX         0.00000   0.00000   0.00000   0.00000   0.00000
  16        9PY         0.00001   0.00000   0.00000   0.00000  -0.00150
  17        9PZ         0.00000   0.00017  -0.00048   0.00050   0.00000
  18       10D 0        0.00000   0.00001   0.00002   0.00088   0.00000
  19       10D+1        0.00000   0.00000   0.00000   0.00000   0.00000
  20       10D-1       -0.00050   0.00000   0.00000   0.00000  -0.01430
  21       10D+2        0.00000  -0.00041   0.00030  -0.00858   0.00000
  22       10D-2        0.00000   0.00000   0.00000   0.00000   0.00000
  23       11D 0        0.00000   0.00023  -0.00058   0.00016   0.00000
  24       11D+1        0.00000   0.00000   0.00000   0.00000   0.00000
  25       11D-1       -0.00306   0.00000   0.00000   0.00000  -0.02131
  26       11D+2        0.00000  -0.00277   0.00430  -0.01756   0.00000
  27       11D-2        0.00000   0.00000   0.00000   0.00000   0.00000
  28       12D 0        0.00000   0.00006  -0.00041  -0.00190   0.00000
  29       12D+1        0.00000   0.00000   0.00000   0.00000   0.00000
  30       12D-1       -0.00050   0.00000   0.00000   0.00000   0.00479
  31       12D+2        0.00000  -0.00054   0.00197   0.00067   0.00000
  32       12D-2        0.00000   0.00000   0.00000   0.00000   0.00000
  33       13F 0        0.00000   0.00032  -0.00032   0.00185   0.00000
  34       13F+1        0.00000   0.00000   0.00000   0.00000   0.00000
  35       13F-1        0.00022   0.00000   0.00000   0.00000   0.00136
  36       13F+2        0.00000   0.00048   0.00253   0.00633   0.00000
  37       13F-2        0.00000   0.00000   0.00000   0.00000   0.00000
  38       13F+3        0.00000   0.00000   0.00000   0.00000   0.00000
  39       13F-3       -0.00037   0.00000   0.00000   0.00000  -0.00242
  40       14F 0        0.00000   0.00064   0.00006   0.00598   0.00000
  41       14F+1        0.00000   0.00000   0.00000   0.00000   0.00000
  42       14F-1        0.00071   0.00000   0.00000   0.00000   0.00711
  43       14F+2        0.00000  -0.00021  -0.00537  -0.00372   0.00000
  44       14F-2        0.00000   0.00000   0.00000   0.00000   0.00000
  45       14F+3        0.00000   0.00000   0.00000   0.00000   0.00000
  46       14F-3       -0.00058   0.00000   0.00000   0.00000  -0.00513
  47 2   H  1S          0.00000  -0.00000  -0.00012   0.01147   0.00000
  48        2S          0.00000   0.00303  -0.00473   0.02534   0.00000
  49        3S          0.00000   0.00278  -0.00767   0.01668   0.00000
  50        4S          0.00000  -0.00029   0.00008   0.00092   0.00000
  51        5PX         0.00000   0.00002  -0.00081   0.00090   0.00000
  52        5PY         0.00001   0.00000   0.00000   0.00000   0.00107
  53        5PZ         0.00000   0.00000   0.00056  -0.00122   0.00000
  54        6PX         0.00000   0.00058  -0.00605  -0.00252   0.00000
  55        6PY         0.00058   0.00000   0.00000   0.00000   0.00496
  56        6PZ         0.00000  -0.00099   0.00453  -0.00227   0.00000
  57        7PX         0.00000   0.00063  -0.00297   0.00225   0.00000
  58        7PY         0.00058   0.00000   0.00000   0.00000  -0.00045
  59        7PZ         0.00000  -0.00102   0.00343  -0.00115   0.00000
  60        8D 0        0.00000   0.00002  -0.00000   0.00052   0.00000
  61        8D+1        0.00000  -0.00005   0.00122  -0.00038   0.00000
  62        8D-1       -0.00001   0.00000   0.00000   0.00000  -0.00084
  63        8D+2        0.00000   0.00003  -0.00092  -0.00023   0.00000
  64        8D-2        0.00003   0.00000   0.00000   0.00000   0.00088
  65        9D 0        0.00000   0.00015  -0.00048  -0.00052   0.00000
  66        9D+1        0.00000  -0.00024   0.00233   0.00280   0.00000
  67        9D-1       -0.00024   0.00000   0.00000   0.00000  -0.00092
  68        9D+2        0.00000  -0.00002  -0.00180  -0.00297   0.00000
  69        9D-2        0.00009   0.00000   0.00000   0.00000  -0.00158
  70 3   H  1S          0.00000  -0.00000  -0.00012   0.01147   0.00000
  71        2S          0.00000   0.00303  -0.00473   0.02534   0.00000
  72        3S          0.00000   0.00278  -0.00767   0.01668   0.00000
  73        4S          0.00000  -0.00029   0.00008   0.00092   0.00000
  74        5PX         0.00000  -0.00002   0.00081  -0.00090   0.00000
  75        5PY         0.00001   0.00000   0.00000   0.00000   0.00107
  76        5PZ         0.00000   0.00000   0.00056  -0.00122   0.00000
  77        6PX         0.00000  -0.00058   0.00605   0.00252   0.00000
  78        6PY         0.00058   0.00000   0.00000   0.00000   0.00496
  79        6PZ         0.00000  -0.00099   0.00453  -0.00227   0.00000
  80        7PX         0.00000  -0.00063   0.00297  -0.00225   0.00000
  81        7PY         0.00058   0.00000   0.00000   0.00000  -0.00045
  82        7PZ         0.00000  -0.00102   0.00343  -0.00115   0.00000
  83        8D 0        0.00000   0.00002  -0.00000   0.00052   0.00000
  84        8D+1        0.00000   0.00005  -0.00122   0.00038   0.00000
  85        8D-1       -0.00001   0.00000   0.00000   0.00000  -0.00084
  86        8D+2        0.00000   0.00003  -0.00092  -0.00023   0.00000
  87        8D-2       -0.00003   0.00000   0.00000   0.00000  -0.00088
  88        9D 0        0.00000   0.00015  -0.00048  -0.00052   0.00000
  89        9D+1        0.00000   0.00024  -0.00233  -0.00280   0.00000
  90        9D-1       -0.00024   0.00000   0.00000   0.00000  -0.00092
  91        9D+2        0.00000  -0.00002  -0.00180  -0.00297   0.00000
  92        9D-2       -0.00009   0.00000   0.00000   0.00000   0.00158
  93 4   F  1S          0.68848   0.68848  -0.00006  -0.14525  -0.15687
  94        2S         -0.00754  -0.00752   0.00027   0.33777   0.36697
  95        3S          0.03517   0.03515   0.00031   0.10543   0.11504
  96        4S         -0.00119  -0.00003   0.00724   0.22446   0.24280
  97        5S         -0.00380  -0.00348   0.00641   0.02017   0.02456
  98        6PX         0.00000   0.00000   0.00000   0.00000   0.00000
  99        6PY        -0.00071  -0.00068  -0.00020  -0.03545  -0.02314
 100        6PZ         0.00050   0.00050   0.00015   0.02131   0.02149
 101        7PX         0.00000   0.00000   0.00000   0.00000   0.00000
 102        7PY         0.00087   0.00075  -0.00010  -0.04548  -0.03173
 103        7PZ        -0.00057  -0.00056   0.00009   0.02738   0.02843
 104        8PX         0.00000   0.00000   0.00000   0.00000   0.00000
 105        8PY         0.00221   0.00134  -0.00058  -0.02329  -0.01231
 106        8PZ        -0.00097  -0.00134   0.00008   0.01066   0.01904
 107        9PX         0.00000   0.00000   0.00000   0.00000   0.00000
 108        9PY         0.00086   0.00047  -0.00061  -0.00117  -0.00189
 109        9PZ        -0.00044  -0.00059   0.00099   0.00014   0.00062
 110       10D 0       -0.00000   0.00000   0.00001  -0.00008   0.00020
 111       10D+1        0.00000   0.00000   0.00000   0.00000   0.00000
 112       10D-1       -0.00012  -0.00012  -0.00018  -0.00158  -0.00139
 113       10D+2       -0.00008  -0.00009  -0.00011  -0.00132  -0.00081
 114       10D-2        0.00000   0.00000   0.00000   0.00000   0.00000
 115       11D 0        0.00002  -0.00002  -0.00007  -0.00098   0.00094
 116       11D+1        0.00000   0.00000   0.00000   0.00000   0.00000
 117       11D-1        0.00045   0.00046   0.00089  -0.00793  -0.00874
 118       11D+2        0.00033   0.00034   0.00053  -0.00678  -0.00542
 119       11D-2        0.00000   0.00000   0.00000   0.00000   0.00000
 120       12D 0        0.00018  -0.00011   0.00015  -0.00080   0.00203
 121       12D+1        0.00000   0.00000   0.00000   0.00000   0.00000
 122       12D-1        0.00047   0.00055   0.00162   0.00035  -0.00344
 123       12D+2        0.00052   0.00024   0.00080  -0.00150   0.00033
 124       12D-2        0.00000   0.00000   0.00000   0.00000   0.00000
 125       13F 0       -0.00001   0.00000  -0.00004  -0.00038  -0.00026
 126       13F+1        0.00000   0.00000   0.00000   0.00000   0.00000
 127       13F-1       -0.00001   0.00001  -0.00001  -0.00021  -0.00034
 128       13F+2       -0.00002  -0.00001  -0.00019  -0.00073  -0.00067
 129       13F-2        0.00000   0.00000   0.00000   0.00000   0.00000
 130       13F+3        0.00000   0.00000   0.00000   0.00000   0.00000
 131       13F-3       -0.00001   0.00002  -0.00000   0.00050   0.00026
 132       14F 0        0.00011   0.00008   0.00058  -0.00127  -0.00125
 133       14F+1        0.00000   0.00000   0.00000   0.00000   0.00000
 134       14F-1        0.00008   0.00007   0.00046  -0.00042  -0.00165
 135       14F+2        0.00024   0.00020   0.00139  -0.00218  -0.00230
 136       14F-2        0.00000   0.00000   0.00000   0.00000   0.00000
 137       14F+3        0.00000   0.00000   0.00000   0.00000   0.00000
 138       14F-3       -0.00008  -0.00014  -0.00043   0.00161   0.00131
 139 5   F  1S         -0.68848   0.68848  -0.00006  -0.14525   0.15687
 140        2S          0.00754  -0.00752   0.00027   0.33777  -0.36697
 141        3S         -0.03517   0.03515   0.00031   0.10543  -0.11504
 142        4S          0.00119  -0.00003   0.00724   0.22446  -0.24280
 143        5S          0.00380  -0.00348   0.00641   0.02017  -0.02456
 144        6PX         0.00000   0.00000   0.00000   0.00000   0.00000
 145        6PY        -0.00071   0.00068   0.00020   0.03545  -0.02314
 146        6PZ        -0.00050   0.00050   0.00015   0.02131  -0.02149
 147        7PX         0.00000   0.00000   0.00000   0.00000   0.00000
 148        7PY         0.00087  -0.00075   0.00010   0.04548  -0.03173
 149        7PZ         0.00057  -0.00056   0.00009   0.02738  -0.02843
 150        8PX         0.00000   0.00000   0.00000   0.00000   0.00000
 151        8PY         0.00221  -0.00134   0.00058   0.02329  -0.01231
 152        8PZ         0.00097  -0.00134   0.00008   0.01066  -0.01904
 153        9PX         0.00000   0.00000   0.00000   0.00000   0.00000
 154        9PY         0.00086  -0.00047   0.00061   0.00117  -0.00189
 155        9PZ         0.00044  -0.00059   0.00099   0.00014  -0.00062
 156       10D 0        0.00000   0.00000   0.00001  -0.00008  -0.00020
 157       10D+1        0.00000   0.00000   0.00000   0.00000   0.00000
 158       10D-1       -0.00012   0.00012   0.00018   0.00158  -0.00139
 159       10D+2        0.00008  -0.00009  -0.00011  -0.00132   0.00081
 160       10D-2        0.00000   0.00000   0.00000   0.00000   0.00000
 161       11D 0       -0.00002  -0.00002  -0.00007  -0.00098  -0.00094
 162       11D+1        0.00000   0.00000   0.00000   0.00000   0.00000
 163       11D-1        0.00045  -0.00046  -0.00089   0.00793  -0.00874
 164       11D+2       -0.00033   0.00034   0.00053  -0.00678   0.00542
 165       11D-2        0.00000   0.00000   0.00000   0.00000   0.00000
 166       12D 0       -0.00018  -0.00011   0.00015  -0.00080  -0.00203
 167       12D+1        0.00000   0.00000   0.00000   0.00000   0.00000
 168       12D-1        0.00047  -0.00055  -0.00162  -0.00035  -0.00344
 169       12D+2       -0.00052   0.00024   0.00080  -0.00150  -0.00033
 170       12D-2        0.00000   0.00000   0.00000   0.00000   0.00000
 171       13F 0        0.00001   0.00000  -0.00004  -0.00038   0.00026
 172       13F+1        0.00000   0.00000   0.00000   0.00000   0.00000
 173       13F-1       -0.00001  -0.00001   0.00001   0.00021  -0.00034
 174       13F+2        0.00002  -0.00001  -0.00019  -0.00073   0.00067
 175       13F-2        0.00000   0.00000   0.00000   0.00000   0.00000
 176       13F+3        0.00000   0.00000   0.00000   0.00000   0.00000
 177       13F-3       -0.00001  -0.00002   0.00000  -0.00050   0.00026
 178       14F 0       -0.00011   0.00008   0.00058  -0.00127   0.00125
 179       14F+1        0.00000   0.00000   0.00000   0.00000   0.00000
 180       14F-1        0.00008  -0.00007  -0.00046   0.00042  -0.00165
 181       14F+2       -0.00024   0.00020   0.00139  -0.00218   0.00230
 182       14F-2        0.00000   0.00000   0.00000   0.00000   0.00000
 183       14F+3        0.00000   0.00000   0.00000   0.00000   0.00000
 184       14F-3       -0.00008   0.00014   0.00043  -0.00161   0.00131
                           6         7         8         9        10
                        (A1)--O   (A1)--O   (B1)--O   (B2)--O   (A2)--O
     Eigenvalues --    -0.81656  -0.65004  -0.64923  -0.64364  -0.52489
   1 1   C  1S         -0.16542  -0.00996   0.00000   0.00000   0.00000
   2        2S          0.38631   0.02400   0.00000   0.00000   0.00000
   3        3S          0.10316   0.00647   0.00000   0.00000   0.00000
   4        4S          0.22906   0.04234   0.00000   0.00000   0.00000
   5        5S          0.00879   0.01367   0.00000   0.00000   0.00000
   6        6PX         0.00000   0.00000   0.21336   0.00000   0.00000
   7        6PY         0.00000   0.00000   0.00000   0.18535   0.00000
   8        6PZ         0.04303   0.19719   0.00000   0.00000   0.00000
   9        7PX         0.00000   0.00000   0.25407   0.00000   0.00000
  10        7PY         0.00000   0.00000   0.00000   0.21424   0.00000
  11        7PZ         0.03913   0.23083   0.00000   0.00000   0.00000
  12        8PX         0.00000   0.00000  -0.03732   0.00000   0.00000
  13        8PY         0.00000   0.00000   0.00000   0.04630   0.00000
  14        8PZ         0.02823   0.05087   0.00000   0.00000   0.00000
  15        9PX         0.00000   0.00000   0.00009   0.00000   0.00000
  16        9PY         0.00000   0.00000   0.00000   0.00050   0.00000
  17        9PZ         0.00080  -0.00147   0.00000   0.00000   0.00000
  18       10D 0       -0.00113  -0.01058   0.00000   0.00000   0.00000
  19       10D+1        0.00000   0.00000  -0.00012   0.00000   0.00000
  20       10D-1        0.00000   0.00000   0.00000  -0.01419   0.00000
  21       10D+2        0.00298   0.00590   0.00000   0.00000   0.00000
  22       10D-2        0.00000   0.00000   0.00000   0.00000   0.01720
  23       11D 0       -0.00153  -0.01542   0.00000   0.00000   0.00000
  24       11D+1        0.00000   0.00000  -0.00080   0.00000   0.00000
  25       11D-1        0.00000   0.00000   0.00000  -0.03884   0.00000
  26       11D+2       -0.00559   0.01889   0.00000   0.00000   0.00000
  27       11D-2        0.00000   0.00000   0.00000   0.00000   0.03833
  28       12D 0        0.00130   0.02855   0.00000   0.00000   0.00000
  29       12D+1        0.00000   0.00000  -0.01506   0.00000   0.00000
  30       12D-1        0.00000   0.00000   0.00000  -0.00196   0.00000
  31       12D+2        0.00150  -0.00694   0.00000   0.00000   0.00000
  32       12D-2        0.00000   0.00000   0.00000   0.00000  -0.02250
  33       13F 0        0.00119   0.00180   0.00000   0.00000   0.00000
  34       13F+1        0.00000   0.00000   0.00091   0.00000   0.00000
  35       13F-1        0.00000   0.00000   0.00000  -0.00106   0.00000
  36       13F+2        0.00377  -0.00329   0.00000   0.00000   0.00000
  37       13F-2        0.00000   0.00000   0.00000   0.00000  -0.00833
  38       13F+3        0.00000   0.00000  -0.00607   0.00000   0.00000
  39       13F-3        0.00000   0.00000   0.00000  -0.00342   0.00000
  40       14F 0        0.00224  -0.00423   0.00000   0.00000   0.00000
  41       14F+1        0.00000   0.00000  -0.00444   0.00000   0.00000
  42       14F-1        0.00000   0.00000   0.00000   0.01020   0.00000
  43       14F+2        0.00699  -0.00214   0.00000   0.00000   0.00000
  44       14F-2        0.00000   0.00000   0.00000   0.00000   0.00086
  45       14F+3        0.00000   0.00000   0.00228   0.00000   0.00000
  46       14F-3        0.00000   0.00000   0.00000  -0.00650   0.00000
  47 2   H  1S          0.08873   0.07199  -0.09504   0.00000   0.00000
  48        2S          0.09551   0.08451  -0.12692   0.00000   0.00000
  49        3S         -0.02008   0.03199  -0.15370   0.00000   0.00000
  50        4S         -0.00115  -0.00164   0.00017   0.00000   0.00000
  51        5PX         0.00814   0.00760  -0.00685   0.00000   0.00000
  52        5PY         0.00000   0.00000   0.00000   0.00318  -0.00205
  53        5PZ        -0.00504  -0.00265   0.00843   0.00000   0.00000
  54        6PX         0.00405   0.00564   0.00465   0.00000   0.00000
  55        6PY         0.00000   0.00000   0.00000   0.01083   0.00431
  56        6PZ        -0.00197   0.00907  -0.00010   0.00000   0.00000
  57        7PX        -0.01035  -0.00954  -0.02289   0.00000   0.00000
  58        7PY         0.00000   0.00000   0.00000  -0.00108  -0.01272
  59        7PZ         0.00754  -0.01282   0.01273   0.00000   0.00000
  60        8D 0       -0.00004  -0.00138  -0.00125   0.00000   0.00000
  61        8D+1       -0.00194  -0.00100   0.00214   0.00000   0.00000
  62        8D-1        0.00000   0.00000   0.00000  -0.00141  -0.00002
  63        8D+2        0.00135   0.00159  -0.00078   0.00000   0.00000
  64        8D-2        0.00000   0.00000   0.00000   0.00196  -0.00054
  65        9D 0        0.00038  -0.00108   0.00211   0.00000   0.00000
  66        9D+1        0.00211   0.00268  -0.00740   0.00000   0.00000
  67        9D-1        0.00000   0.00000   0.00000   0.00116  -0.00296
  68        9D+2       -0.00054  -0.00145   0.00226   0.00000   0.00000
  69        9D-2        0.00000   0.00000   0.00000  -0.00090   0.00498
  70 3   H  1S          0.08873   0.07199   0.09504   0.00000   0.00000
  71        2S          0.09551   0.08451   0.12692   0.00000   0.00000
  72        3S         -0.02008   0.03199   0.15370   0.00000   0.00000
  73        4S         -0.00115  -0.00164  -0.00017   0.00000   0.00000
  74        5PX        -0.00814  -0.00760  -0.00685   0.00000   0.00000
  75        5PY         0.00000   0.00000   0.00000   0.00318   0.00205
  76        5PZ        -0.00504  -0.00265  -0.00843   0.00000   0.00000
  77        6PX        -0.00405  -0.00564   0.00465   0.00000   0.00000
  78        6PY         0.00000   0.00000   0.00000   0.01083  -0.00431
  79        6PZ        -0.00197   0.00907   0.00010   0.00000   0.00000
  80        7PX         0.01035   0.00954  -0.02289   0.00000   0.00000
  81        7PY         0.00000   0.00000   0.00000  -0.00108   0.01272
  82        7PZ         0.00754  -0.01282  -0.01273   0.00000   0.00000
  83        8D 0       -0.00004  -0.00138   0.00125   0.00000   0.00000
  84        8D+1        0.00194   0.00100   0.00214   0.00000   0.00000
  85        8D-1        0.00000   0.00000   0.00000  -0.00141   0.00002
  86        8D+2        0.00135   0.00159   0.00078   0.00000   0.00000
  87        8D-2        0.00000   0.00000   0.00000  -0.00196  -0.00054
  88        9D 0        0.00038  -0.00108  -0.00211   0.00000   0.00000
  89        9D+1       -0.00211  -0.00268  -0.00740   0.00000   0.00000
  90        9D-1        0.00000   0.00000   0.00000   0.00116   0.00296
  91        9D+2       -0.00054  -0.00145  -0.00226   0.00000   0.00000
  92        9D-2        0.00000   0.00000   0.00000   0.00090   0.00498
  93 4   F  1S          0.06363  -0.02401   0.00000   0.03800   0.00000
  94        2S         -0.15640   0.05787   0.00000  -0.09367   0.00000
  95        3S         -0.05209   0.02056   0.00000  -0.03299   0.00000
  96        4S         -0.17156   0.08076   0.00000  -0.13648   0.00000
  97        5S         -0.01932   0.00173   0.00000  -0.01876   0.00000
  98        6PX         0.00000   0.00000   0.17238   0.00000   0.27886
  99        6PY        -0.09340   0.19914   0.00000  -0.14796   0.00000
 100        6PZ         0.08258   0.03461   0.00000   0.18488   0.00000
 101        7PX         0.00000   0.00000   0.20162   0.00000   0.32753
 102        7PY        -0.10637   0.23373   0.00000  -0.17316   0.00000
 103        7PZ         0.09459   0.04076   0.00000   0.21672   0.00000
 104        8PX         0.00000   0.00000   0.14961   0.00000   0.24497
 105        8PY        -0.05281   0.14864   0.00000  -0.09198   0.00000
 106        8PZ         0.04759   0.04323   0.00000   0.14065   0.00000
 107        9PX         0.00000   0.00000   0.00496   0.00000   0.03828
 108        9PY        -0.00162   0.01660   0.00000  -0.01021   0.00000
 109        9PZ         0.00205   0.00653   0.00000   0.00929   0.00000
 110       10D 0        0.00033   0.00207   0.00000   0.00105   0.00000
 111       10D+1        0.00000   0.00000   0.00197   0.00000   0.00171
 112       10D-1       -0.00258   0.00123   0.00000  -0.00382   0.00000
 113       10D+2       -0.00143   0.00289   0.00000  -0.00179   0.00000
 114       10D-2        0.00000   0.00000  -0.00270   0.00000  -0.00202
 115       11D 0        0.00107   0.00845   0.00000   0.00408   0.00000
 116       11D+1        0.00000   0.00000   0.00663   0.00000   0.00550
 117       11D-1       -0.00687   0.00426   0.00000  -0.01340   0.00000
 118       11D+2       -0.00375   0.01029   0.00000  -0.00617   0.00000
 119       11D-2        0.00000   0.00000  -0.00952   0.00000  -0.00737
 120       12D 0        0.00014   0.00602   0.00000   0.00729   0.00000
 121       12D+1        0.00000   0.00000   0.00709   0.00000   0.00636
 122       12D-1       -0.00285  -0.00110   0.00000  -0.00621   0.00000
 123       12D+2       -0.00130   0.00419   0.00000   0.00120   0.00000
 124       12D-2        0.00000   0.00000  -0.01149   0.00000  -0.00567
 125       13F 0       -0.00043   0.00094   0.00000  -0.00066   0.00000
 126       13F+1        0.00000   0.00000   0.00044   0.00000   0.00039
 127       13F-1       -0.00073  -0.00085   0.00000  -0.00131   0.00000
 128       13F+2       -0.00091   0.00109   0.00000  -0.00189   0.00000
 129       13F-2        0.00000   0.00000  -0.00149   0.00000  -0.00126
 130       13F+3        0.00000   0.00000  -0.00124   0.00000  -0.00099
 131       13F-3        0.00045  -0.00147   0.00000   0.00081   0.00000
 132       14F 0       -0.00070   0.00258   0.00000  -0.00103   0.00000
 133       14F+1        0.00000   0.00000   0.00014   0.00000   0.00040
 134       14F-1       -0.00063  -0.00169   0.00000  -0.00326   0.00000
 135       14F+2       -0.00180   0.00220   0.00000  -0.00277   0.00000
 136       14F-2        0.00000   0.00000  -0.00205   0.00000  -0.00195
 137       14F+3        0.00000   0.00000  -0.00242   0.00000  -0.00184
 138       14F-3        0.00082  -0.00184   0.00000   0.00118   0.00000
 139 5   F  1S          0.06363  -0.02401   0.00000  -0.03800   0.00000
 140        2S         -0.15640   0.05787   0.00000   0.09367   0.00000
 141        3S         -0.05209   0.02056   0.00000   0.03299   0.00000
 142        4S         -0.17156   0.08076   0.00000   0.13648   0.00000
 143        5S         -0.01932   0.00173   0.00000   0.01876   0.00000
 144        6PX         0.00000   0.00000   0.17238   0.00000  -0.27886
 145        6PY         0.09340  -0.19914   0.00000  -0.14796   0.00000
 146        6PZ         0.08258   0.03461   0.00000  -0.18488   0.00000
 147        7PX         0.00000   0.00000   0.20162   0.00000  -0.32753
 148        7PY         0.10637  -0.23373   0.00000  -0.17316   0.00000
 149        7PZ         0.09459   0.04076   0.00000  -0.21672   0.00000
 150        8PX         0.00000   0.00000   0.14961   0.00000  -0.24497
 151        8PY         0.05281  -0.14864   0.00000  -0.09198   0.00000
 152        8PZ         0.04759   0.04323   0.00000  -0.14065   0.00000
 153        9PX         0.00000   0.00000   0.00496   0.00000  -0.03828
 154        9PY         0.00162  -0.01660   0.00000  -0.01021   0.00000
 155        9PZ         0.00205   0.00653   0.00000  -0.00929   0.00000
 156       10D 0        0.00033   0.00207   0.00000  -0.00105   0.00000
 157       10D+1        0.00000   0.00000   0.00197   0.00000  -0.00171
 158       10D-1        0.00258  -0.00123   0.00000  -0.00382   0.00000
 159       10D+2       -0.00143   0.00289   0.00000   0.00179   0.00000
 160       10D-2        0.00000   0.00000   0.00270   0.00000  -0.00202
 161       11D 0        0.00107   0.00845   0.00000  -0.00408   0.00000
 162       11D+1        0.00000   0.00000   0.00663   0.00000  -0.00550
 163       11D-1        0.00687  -0.00426   0.00000  -0.01340   0.00000
 164       11D+2       -0.00375   0.01029   0.00000   0.00617   0.00000
 165       11D-2        0.00000   0.00000   0.00952   0.00000  -0.00737
 166       12D 0        0.00014   0.00602   0.00000  -0.00729   0.00000
 167       12D+1        0.00000   0.00000   0.00709   0.00000  -0.00636
 168       12D-1        0.00285   0.00110   0.00000  -0.00621   0.00000
 169       12D+2       -0.00130   0.00419   0.00000  -0.00120   0.00000
 170       12D-2        0.00000   0.00000   0.01149   0.00000  -0.00567
 171       13F 0       -0.00043   0.00094   0.00000   0.00066   0.00000
 172       13F+1        0.00000   0.00000   0.00044   0.00000  -0.00039
 173       13F-1        0.00073   0.00085   0.00000  -0.00131   0.00000
 174       13F+2       -0.00091   0.00109   0.00000   0.00189   0.00000
 175       13F-2        0.00000   0.00000   0.00149   0.00000  -0.00126
 176       13F+3        0.00000   0.00000  -0.00124   0.00000   0.00099
 177       13F-3       -0.00045   0.00147   0.00000   0.00081   0.00000
 178       14F 0       -0.00070   0.00258   0.00000   0.00103   0.00000
 179       14F+1        0.00000   0.00000   0.00014   0.00000  -0.00040
 180       14F-1        0.00063   0.00169   0.00000  -0.00326   0.00000
 181       14F+2       -0.00180   0.00220   0.00000   0.00277   0.00000
 182       14F-2        0.00000   0.00000   0.00205   0.00000  -0.00195
 183       14F+3        0.00000   0.00000  -0.00242   0.00000   0.00184
 184       14F-3       -0.00082   0.00184   0.00000   0.00118   0.00000
                          11        12        13        14        15
                        (A1)--O   (B2)--O   (B1)--O   (A1)--V   (B1)--V
     Eigenvalues --    -0.51239  -0.50332  -0.43762   0.03125   0.04636
   1 1   C  1S          0.02642   0.00000   0.00000  -0.02360   0.00000
   2        2S         -0.06327   0.00000   0.00000   0.05675   0.00000
   3        3S         -0.01527   0.00000   0.00000  -0.01056   0.00000
   4        4S         -0.21437   0.00000   0.00000   3.14900   0.00000
   5        5S         -0.04464   0.00000   0.00000   4.32553   0.00000
   6        6PX         0.00000   0.00000   0.17855   0.00000   0.04278
   7        6PY         0.00000  -0.01650   0.00000   0.00000   0.00000
   8        6PZ        -0.10570   0.00000   0.00000   0.04410   0.00000
   9        7PX         0.00000   0.00000   0.20912   0.00000   0.17187
  10        7PY         0.00000  -0.00913   0.00000   0.00000   0.00000
  11        7PZ        -0.11657   0.00000   0.00000   0.09187   0.00000
  12        8PX         0.00000   0.00000   0.27032   0.00000   1.34995
  13        8PY         0.00000  -0.03881   0.00000   0.00000   0.00000
  14        8PZ        -0.10954   0.00000   0.00000   0.41813   0.00000
  15        9PX         0.00000   0.00000   0.03302   0.00000   2.34347
  16        9PY         0.00000  -0.00209   0.00000   0.00000   0.00000
  17        9PZ        -0.00847   0.00000   0.00000   0.32426   0.00000
  18       10D 0       -0.01290   0.00000   0.00000  -0.00021   0.00000
  19       10D+1        0.00000   0.00000   0.02212   0.00000   0.00148
  20       10D-1        0.00000   0.01489   0.00000   0.00000   0.00000
  21       10D+2       -0.02081   0.00000   0.00000   0.00222   0.00000
  22       10D-2        0.00000   0.00000   0.00000   0.00000   0.00000
  23       11D 0       -0.02975   0.00000   0.00000   0.00283   0.00000
  24       11D+1        0.00000   0.00000   0.04764   0.00000   0.09399
  25       11D-1        0.00000   0.04029   0.00000   0.00000   0.00000
  26       11D+2       -0.04728   0.00000   0.00000   0.01843   0.00000
  27       11D-2        0.00000   0.00000   0.00000   0.00000   0.00000
  28       12D 0        0.00764   0.00000   0.00000   0.03117   0.00000
  29       12D+1        0.00000   0.00000   0.04366   0.00000   0.24371
  30       12D-1        0.00000   0.01363   0.00000   0.00000   0.00000
  31       12D+2       -0.02679   0.00000   0.00000   0.04864   0.00000
  32       12D-2        0.00000   0.00000   0.00000   0.00000   0.00000
  33       13F 0        0.00453   0.00000   0.00000  -0.00059   0.00000
  34       13F+1        0.00000   0.00000  -0.00166   0.00000   0.00235
  35       13F-1        0.00000  -0.01070   0.00000   0.00000   0.00000
  36       13F+2        0.00237   0.00000   0.00000   0.00763   0.00000
  37       13F-2        0.00000   0.00000   0.00000   0.00000   0.00000
  38       13F+3        0.00000   0.00000   0.00508   0.00000   0.00273
  39       13F-3        0.00000  -0.00288   0.00000   0.00000   0.00000
  40       14F 0        0.01232   0.00000   0.00000  -0.00197   0.00000
  41       14F+1        0.00000   0.00000   0.00506   0.00000   0.00880
  42       14F-1        0.00000  -0.00474   0.00000   0.00000   0.00000
  43       14F+2       -0.00137   0.00000   0.00000   0.08709   0.00000
  44       14F-2        0.00000   0.00000   0.00000   0.00000   0.00000
  45       14F+3        0.00000   0.00000   0.00361   0.00000   0.01793
  46       14F-3        0.00000   0.01090   0.00000   0.00000   0.00000
  47 2   H  1S         -0.07005   0.00000  -0.12409   0.00893  -0.00789
  48        2S         -0.07318   0.00000  -0.16399  -0.29162   0.21511
  49        3S          0.05497   0.00000   0.14531  -1.50293   1.92159
  50        4S          0.00528   0.00000   0.02448  -1.68819   5.31106
  51        5PX        -0.00540   0.00000  -0.00599   0.00371  -0.00008
  52        5PY         0.00000   0.00109   0.00000   0.00000   0.00000
  53        5PZ         0.00128   0.00000   0.00582  -0.00092   0.00212
  54        6PX        -0.00318   0.00000   0.00374  -0.06813   0.05017
  55        6PY         0.00000  -0.00477   0.00000   0.00000   0.00000
  56        6PZ        -0.00304   0.00000   0.00401   0.04235  -0.04586
  57        7PX         0.01000   0.00000   0.04837  -0.28193   0.29078
  58        7PY         0.00000   0.00022   0.00000   0.00000   0.00000
  59        7PZ        -0.01767   0.00000  -0.03102   0.13703  -0.32318
  60        8D 0        0.00061   0.00000  -0.00036  -0.00036  -0.00083
  61        8D+1        0.00055   0.00000   0.00191   0.00318  -0.00294
  62        8D-1        0.00000   0.00038   0.00000   0.00000   0.00000
  63        8D+2       -0.00127   0.00000  -0.00075  -0.00218   0.00234
  64        8D-2        0.00000   0.00017   0.00000   0.00000   0.00000
  65        9D 0       -0.00201   0.00000  -0.00230   0.00570   0.01164
  66        9D+1        0.00114   0.00000   0.00325  -0.00688  -0.01251
  67        9D-1        0.00000   0.00342   0.00000   0.00000   0.00000
  68        9D+2       -0.00185   0.00000   0.00084  -0.00297  -0.00162
  69        9D-2        0.00000  -0.00167   0.00000   0.00000   0.00000
  70 3   H  1S         -0.07005   0.00000   0.12409   0.00893   0.00789
  71        2S         -0.07318   0.00000   0.16399  -0.29162  -0.21511
  72        3S          0.05497   0.00000  -0.14531  -1.50293  -1.92159
  73        4S          0.00528   0.00000  -0.02448  -1.68819  -5.31106
  74        5PX         0.00540   0.00000  -0.00599  -0.00371  -0.00008
  75        5PY         0.00000   0.00109   0.00000   0.00000   0.00000
  76        5PZ         0.00128   0.00000  -0.00582  -0.00092  -0.00212
  77        6PX         0.00318   0.00000   0.00374   0.06813   0.05017
  78        6PY         0.00000  -0.00477   0.00000   0.00000   0.00000
  79        6PZ        -0.00304   0.00000  -0.00401   0.04235   0.04586
  80        7PX        -0.01000   0.00000   0.04837   0.28193   0.29078
  81        7PY         0.00000   0.00022   0.00000   0.00000   0.00000
  82        7PZ        -0.01767   0.00000   0.03102   0.13703   0.32318
  83        8D 0        0.00061   0.00000   0.00036  -0.00036   0.00083
  84        8D+1       -0.00055   0.00000   0.00191  -0.00318  -0.00294
  85        8D-1        0.00000   0.00038   0.00000   0.00000   0.00000
  86        8D+2       -0.00127   0.00000   0.00075  -0.00218  -0.00234
  87        8D-2        0.00000  -0.00017   0.00000   0.00000   0.00000
  88        9D 0       -0.00201   0.00000   0.00230   0.00570  -0.01164
  89        9D+1       -0.00114   0.00000   0.00325   0.00688  -0.01251
  90        9D-1        0.00000   0.00342   0.00000   0.00000   0.00000
  91        9D+2       -0.00185   0.00000  -0.00084  -0.00297   0.00162
  92        9D-2        0.00000   0.00167   0.00000   0.00000   0.00000
  93 4   F  1S         -0.00083   0.00197   0.00000  -0.00401   0.00000
  94        2S          0.00326  -0.00627   0.00000   0.02646   0.00000
  95        3S          0.00053  -0.00172   0.00000   0.00790   0.00000
  96        4S         -0.01331   0.02313   0.00000  -0.14729   0.00000
  97        5S         -0.02423   0.03046   0.00000  -0.82404   0.00000
  98        6PX         0.00000   0.00000  -0.21498   0.00000  -0.00008
  99        6PY         0.03260   0.22677   0.00000   0.00821   0.00000
 100        6PZ         0.25215   0.17357   0.00000  -0.01112   0.00000
 101        7PX         0.00000   0.00000  -0.25178   0.00000   0.00143
 102        7PY         0.03794   0.26572   0.00000   0.00894   0.00000
 103        7PZ         0.29626   0.20446   0.00000  -0.01108   0.00000
 104        8PX         0.00000   0.00000  -0.20689   0.00000  -0.00869
 105        8PY         0.03241   0.19525   0.00000   0.13701   0.00000
 106        8PZ         0.21491   0.16318   0.00000  -0.11378   0.00000
 107        9PX         0.00000   0.00000  -0.03499   0.00000  -0.18178
 108        9PY         0.01134   0.02037   0.00000   0.19207   0.00000
 109        9PZ         0.02587   0.02459   0.00000  -0.14561   0.00000
 110       10D 0        0.00142   0.00200   0.00000   0.00026   0.00000
 111       10D+1        0.00000   0.00000  -0.00005   0.00000  -0.00001
 112       10D-1       -0.00208   0.00037   0.00000  -0.00045   0.00000
 113       10D+2       -0.00009   0.00163   0.00000  -0.00013   0.00000
 114       10D-2        0.00000   0.00000   0.00055   0.00000  -0.00003
 115       11D 0        0.00491   0.00653   0.00000   0.00160   0.00000
 116       11D+1        0.00000   0.00000   0.00044   0.00000   0.00289
 117       11D-1       -0.00693   0.00138   0.00000   0.00132   0.00000
 118       11D+2       -0.00092   0.00522   0.00000   0.00193   0.00000
 119       11D-2        0.00000   0.00000   0.00147   0.00000  -0.00542
 120       12D 0        0.00333   0.01152   0.00000  -0.00282   0.00000
 121       12D+1        0.00000   0.00000  -0.00276   0.00000  -0.00942
 122       12D-1       -0.00563   0.00209   0.00000   0.02719   0.00000
 123       12D+2       -0.00264   0.00877   0.00000   0.01439   0.00000
 124       12D-2        0.00000   0.00000   0.00623   0.00000   0.01095
 125       13F 0       -0.00008   0.00073   0.00000  -0.00009   0.00000
 126       13F+1        0.00000   0.00000   0.00006   0.00000   0.00018
 127       13F-1       -0.00127  -0.00096   0.00000  -0.00036   0.00000
 128       13F+2       -0.00085   0.00047   0.00000   0.00043   0.00000
 129       13F-2        0.00000   0.00000   0.00011   0.00000  -0.00037
 130       13F+3        0.00000   0.00000   0.00034   0.00000  -0.00019
 131       13F-3       -0.00012  -0.00062   0.00000  -0.00004   0.00000
 132       14F 0        0.00019   0.00172   0.00000   0.00172   0.00000
 133       14F+1        0.00000   0.00000  -0.00006   0.00000  -0.00063
 134       14F-1       -0.00208  -0.00161   0.00000   0.00158   0.00000
 135       14F+2       -0.00160   0.00117   0.00000  -0.00006   0.00000
 136       14F-2        0.00000   0.00000   0.00084   0.00000   0.00030
 137       14F+3        0.00000   0.00000   0.00109   0.00000  -0.00051
 138       14F-3        0.00096  -0.00204   0.00000  -0.00109   0.00000
 139 5   F  1S         -0.00083  -0.00197   0.00000  -0.00401   0.00000
 140        2S          0.00326   0.00627   0.00000   0.02646   0.00000
 141        3S          0.00053   0.00172   0.00000   0.00790   0.00000
 142        4S         -0.01331  -0.02313   0.00000  -0.14729   0.00000
 143        5S         -0.02423  -0.03046   0.00000  -0.82404   0.00000
 144        6PX         0.00000   0.00000  -0.21498   0.00000  -0.00008
 145        6PY        -0.03260   0.22677   0.00000  -0.00821   0.00000
 146        6PZ         0.25215  -0.17357   0.00000  -0.01112   0.00000
 147        7PX         0.00000   0.00000  -0.25178   0.00000   0.00143
 148        7PY        -0.03794   0.26572   0.00000  -0.00894   0.00000
 149        7PZ         0.29626  -0.20446   0.00000  -0.01108   0.00000
 150        8PX         0.00000   0.00000  -0.20689   0.00000  -0.00869
 151        8PY        -0.03241   0.19525   0.00000  -0.13701   0.00000
 152        8PZ         0.21491  -0.16318   0.00000  -0.11378   0.00000
 153        9PX         0.00000   0.00000  -0.03499   0.00000  -0.18178
 154        9PY        -0.01134   0.02037   0.00000  -0.19207   0.00000
 155        9PZ         0.02587  -0.02459   0.00000  -0.14561   0.00000
 156       10D 0        0.00142  -0.00200   0.00000   0.00026   0.00000
 157       10D+1        0.00000   0.00000  -0.00005   0.00000  -0.00001
 158       10D-1        0.00208   0.00037   0.00000   0.00045   0.00000
 159       10D+2       -0.00009  -0.00163   0.00000  -0.00013   0.00000
 160       10D-2        0.00000   0.00000  -0.00055   0.00000   0.00003
 161       11D 0        0.00491  -0.00653   0.00000   0.00160   0.00000
 162       11D+1        0.00000   0.00000   0.00044   0.00000   0.00289
 163       11D-1        0.00693   0.00138   0.00000  -0.00132   0.00000
 164       11D+2       -0.00092  -0.00522   0.00000   0.00193   0.00000
 165       11D-2        0.00000   0.00000  -0.00147   0.00000   0.00542
 166       12D 0        0.00333  -0.01152   0.00000  -0.00282   0.00000
 167       12D+1        0.00000   0.00000  -0.00276   0.00000  -0.00942
 168       12D-1        0.00563   0.00209   0.00000  -0.02719   0.00000
 169       12D+2       -0.00264  -0.00877   0.00000   0.01439   0.00000
 170       12D-2        0.00000   0.00000  -0.00623   0.00000  -0.01095
 171       13F 0       -0.00008  -0.00073   0.00000  -0.00009   0.00000
 172       13F+1        0.00000   0.00000   0.00006   0.00000   0.00018
 173       13F-1        0.00127  -0.00096   0.00000   0.00036   0.00000
 174       13F+2       -0.00085  -0.00047   0.00000   0.00043   0.00000
 175       13F-2        0.00000   0.00000  -0.00011   0.00000   0.00037
 176       13F+3        0.00000   0.00000   0.00034   0.00000  -0.00019
 177       13F-3        0.00012  -0.00062   0.00000   0.00004   0.00000
 178       14F 0        0.00019  -0.00172   0.00000   0.00172   0.00000
 179       14F+1        0.00000   0.00000  -0.00006   0.00000  -0.00063
 180       14F-1        0.00208  -0.00161   0.00000  -0.00158   0.00000
 181       14F+2       -0.00160  -0.00117   0.00000  -0.00006   0.00000
 182       14F-2        0.00000   0.00000  -0.00084   0.00000  -0.00030
 183       14F+3        0.00000   0.00000   0.00109   0.00000  -0.00051
 184       14F-3       -0.00096  -0.00204   0.00000   0.00109   0.00000
                          16        17        18        19        20
                        (B2)--V   (A1)--V   (B1)--V   (A1)--V   (A1)--V
     Eigenvalues --     0.07525   0.07740   0.12679   0.12963   0.18166
   1 1   C  1S          0.00000   0.02292   0.00000   0.04624   0.01607
   2        2S          0.00000  -0.06937   0.00000  -0.14231  -0.07403
   3        3S          0.00000  -0.02503   0.00000  -0.11677  -0.03776
   4        4S          0.00000   0.08822   0.00000   7.86223  -1.03411
   5        5S          0.00000   0.61870   0.00000   9.69168   3.23462
   6        6PX         0.00000   0.00000  -0.07917   0.00000   0.00000
   7        6PY         0.04427   0.00000   0.00000   0.00000   0.00000
   8        6PZ         0.00000   0.01152   0.00000  -0.10573   0.08535
   9        7PX         0.00000   0.00000  -0.08553   0.00000   0.00000
  10        7PY         0.13523   0.00000   0.00000   0.00000   0.00000
  11        7PZ         0.00000   0.07889   0.00000  -0.04357  -0.17310
  12        8PX         0.00000   0.00000   2.77646   0.00000   0.00000
  13        8PY         1.19993   0.00000   0.00000   0.00000   0.00000
  14        8PZ         0.00000   1.31215   0.00000   0.90443  -3.21723
  15        9PX         0.00000   0.00000   5.63625   0.00000   0.00000
  16        9PY         1.88472   0.00000   0.00000   0.00000   0.00000
  17        9PZ         0.00000   2.01328   0.00000   0.82516   0.17041
  18       10D 0        0.00000   0.00384   0.00000  -0.00187   0.01298
  19       10D+1        0.00000   0.00000   0.00175   0.00000   0.00000
  20       10D-1        0.00521   0.00000   0.00000   0.00000   0.00000
  21       10D+2        0.00000  -0.00258   0.00000   0.01014  -0.01814
  22       10D-2        0.00000   0.00000   0.00000   0.00000   0.00000
  23       11D 0        0.00000  -0.00973   0.00000   0.01022  -0.14798
  24       11D+1        0.00000   0.00000   0.04439   0.00000   0.00000
  25       11D-1       -0.00455   0.00000   0.00000   0.00000   0.00000
  26       11D+2        0.00000   0.00510   0.00000   0.08230  -0.34189
  27       11D-2        0.00000   0.00000   0.00000   0.00000   0.00000
  28       12D 0        0.00000  -0.07559   0.00000   0.12659  -1.10211
  29       12D+1        0.00000   0.00000   0.66142   0.00000   0.00000
  30       12D-1       -0.10813   0.00000   0.00000   0.00000   0.00000
  31       12D+2        0.00000   0.21720   0.00000   0.17483  -0.60494
  32       12D-2        0.00000   0.00000   0.00000   0.00000   0.00000
  33       13F 0        0.00000  -0.00197   0.00000  -0.00326   0.01359
  34       13F+1        0.00000   0.00000   0.00009   0.00000   0.00000
  35       13F-1        0.00289   0.00000   0.00000   0.00000   0.00000
  36       13F+2        0.00000   0.00501   0.00000   0.01884   0.00233
  37       13F-2        0.00000   0.00000   0.00000   0.00000   0.00000
  38       13F+3        0.00000   0.00000   0.00538   0.00000   0.00000
  39       13F-3       -0.00069   0.00000   0.00000   0.00000   0.00000
  40       14F 0        0.00000   0.02742   0.00000  -0.01251   0.09313
  41       14F+1        0.00000   0.00000  -0.00972   0.00000   0.00000
  42       14F-1       -0.00302   0.00000   0.00000   0.00000   0.00000
  43       14F+2        0.00000   0.00204   0.00000   0.21013   0.02910
  44       14F-2        0.00000   0.00000   0.00000   0.00000   0.00000
  45       14F+3        0.00000   0.00000  -0.04872   0.00000   0.00000
  46       14F-3        0.01812   0.00000   0.00000   0.00000   0.00000
  47 2   H  1S          0.00000   0.00064   0.00107   0.01319  -0.03230
  48        2S          0.00000  -0.11225   0.20318  -0.73303   0.33161
  49        3S          0.00000  -0.92750   3.60459  -3.83873   2.61068
  50        4S          0.00000  -0.49650   6.82710  -2.22697  -0.57016
  51        5PX         0.00000  -0.00027   0.00687  -0.00727   0.00462
  52        5PY         0.00605   0.00000   0.00000   0.00000   0.00000
  53        5PZ         0.00000   0.00552  -0.00051   0.00367  -0.00347
  54        6PX         0.00000  -0.03832   0.01689  -0.23735   0.15278
  55        6PY        -0.02021   0.00000   0.00000   0.00000   0.00000
  56        6PZ         0.00000   0.01453  -0.05852   0.13374   0.02540
  57        7PX         0.00000  -0.06923   0.01999  -0.88678   1.43594
  58        7PY        -0.35805   0.00000   0.00000   0.00000   0.00000
  59        7PZ         0.00000  -0.19646  -0.41913   0.38324   0.31747
  60        8D 0        0.00000  -0.00098   0.00017   0.00087   0.00034
  61        8D+1        0.00000   0.00395  -0.00435   0.01052  -0.00284
  62        8D-1       -0.00053   0.00000   0.00000   0.00000   0.00000
  63        8D+2        0.00000  -0.00210   0.00233  -0.00840   0.00290
  64        8D-2        0.00093   0.00000   0.00000   0.00000   0.00000
  65        9D 0        0.00000   0.02591   0.02347   0.01878  -0.06928
  66        9D+1        0.00000  -0.04410   0.04138  -0.01486   0.01021
  67        9D-1        0.04617   0.00000   0.00000   0.00000   0.00000
  68        9D+2        0.00000  -0.00643  -0.09679  -0.01496   0.07420
  69        9D-2       -0.03240   0.00000   0.00000   0.00000   0.00000
  70 3   H  1S          0.00000   0.00064  -0.00107   0.01319  -0.03230
  71        2S          0.00000  -0.11225  -0.20318  -0.73303   0.33161
  72        3S          0.00000  -0.92750  -3.60459  -3.83873   2.61068
  73        4S          0.00000  -0.49650  -6.82710  -2.22697  -0.57016
  74        5PX         0.00000   0.00027   0.00687   0.00727  -0.00462
  75        5PY         0.00605   0.00000   0.00000   0.00000   0.00000
  76        5PZ         0.00000   0.00552   0.00051   0.00367  -0.00347
  77        6PX         0.00000   0.03832   0.01689   0.23735  -0.15278
  78        6PY        -0.02021   0.00000   0.00000   0.00000   0.00000
  79        6PZ         0.00000   0.01453   0.05852   0.13374   0.02540
  80        7PX         0.00000   0.06923   0.01999   0.88678  -1.43594
  81        7PY        -0.35805   0.00000   0.00000   0.00000   0.00000
  82        7PZ         0.00000  -0.19646   0.41913   0.38324   0.31747
  83        8D 0        0.00000  -0.00098  -0.00017   0.00087   0.00034
  84        8D+1        0.00000  -0.00395  -0.00435  -0.01052   0.00284
  85        8D-1       -0.00053   0.00000   0.00000   0.00000   0.00000
  86        8D+2        0.00000  -0.00210  -0.00233  -0.00840   0.00290
  87        8D-2       -0.00093   0.00000   0.00000   0.00000   0.00000
  88        9D 0        0.00000   0.02591  -0.02347   0.01878  -0.06928
  89        9D+1        0.00000   0.04410   0.04138   0.01486  -0.01021
  90        9D-1        0.04617   0.00000   0.00000   0.00000   0.00000
  91        9D+2        0.00000  -0.00643   0.09679  -0.01496   0.07420
  92        9D-2        0.03240   0.00000   0.00000   0.00000   0.00000
  93 4   F  1S          0.01941  -0.01938   0.00000   0.01842  -0.00612
  94        2S         -0.04487   0.04827   0.00000  -0.01874   0.05411
  95        3S         -0.01601   0.01734   0.00000  -0.00914   0.01601
  96        4S         -0.19893   0.16084   0.00000  -0.47584  -0.36868
  97        5S         -1.10052   0.94853   0.00000  -2.23719  -3.22864
  98        6PX         0.00000   0.00000  -0.02116   0.00000   0.00000
  99        6PY        -0.01096  -0.02479   0.00000   0.00058  -0.05799
 100        6PZ        -0.03749  -0.01027   0.00000   0.01646   0.03593
 101        7PX         0.00000   0.00000  -0.02012   0.00000   0.00000
 102        7PY        -0.01704  -0.02257   0.00000  -0.00381  -0.06639
 103        7PZ        -0.04248  -0.01166   0.00000   0.02398   0.04122
 104        8PX         0.00000   0.00000  -0.12401   0.00000   0.00000
 105        8PY         0.08197  -0.13520   0.00000   0.35824   0.17395
 106        8PZ        -0.11744  -0.02407   0.00000  -0.23383  -0.26656
 107        9PX         0.00000   0.00000  -0.57501   0.00000   0.00000
 108        9PY        -0.25151  -0.19715   0.00000   0.45743   0.52278
 109        9PZ        -0.15900  -0.34060   0.00000  -0.27792  -1.40949
 110       10D 0       -0.00002  -0.00016   0.00000  -0.00094   0.00212
 111       10D+1        0.00000   0.00000  -0.00142   0.00000   0.00000
 112       10D-1       -0.00103   0.00118   0.00000   0.00000  -0.00062
 113       10D+2       -0.00090   0.00003   0.00000  -0.00043  -0.00056
 114       10D-2        0.00000   0.00000   0.00139   0.00000   0.00000
 115       11D 0        0.00271   0.00274   0.00000  -0.00277   0.00121
 116       11D+1        0.00000   0.00000   0.00364   0.00000   0.00000
 117       11D-1        0.00572  -0.00525   0.00000   0.00881   0.00961
 118       11D+2        0.00665  -0.00036   0.00000   0.00555   0.00441
 119       11D-2        0.00000   0.00000  -0.00112   0.00000   0.00000
 120       12D 0       -0.00891  -0.03317   0.00000  -0.00935  -0.02754
 121       12D+1        0.00000   0.00000  -0.07390   0.00000   0.00000
 122       12D-1        0.00227   0.04228   0.00000   0.08535   0.10564
 123       12D+2       -0.01568  -0.03210   0.00000   0.05091  -0.00171
 124       12D-2        0.00000   0.00000   0.05635   0.00000   0.00000
 125       13F 0       -0.00003  -0.00033   0.00000  -0.00073   0.00015
 126       13F+1        0.00000   0.00000   0.00091   0.00000   0.00000
 127       13F-1       -0.00019  -0.00088   0.00000  -0.00026  -0.00199
 128       13F+2       -0.00018  -0.00020   0.00000   0.00061  -0.00104
 129       13F-2        0.00000   0.00000  -0.00070   0.00000   0.00000
 130       13F+3        0.00000   0.00000  -0.00003   0.00000   0.00000
 131       13F-3       -0.00037  -0.00052   0.00000   0.00045  -0.00096
 132       14F 0        0.00106   0.00152   0.00000   0.00438   0.00294
 133       14F+1        0.00000   0.00000  -0.00481   0.00000   0.00000
 134       14F-1        0.00140   0.00481   0.00000   0.00561   0.01176
 135       14F+2        0.00197   0.00085   0.00000   0.00212   0.00815
 136       14F-2        0.00000   0.00000   0.00582   0.00000   0.00000
 137       14F+3        0.00000   0.00000   0.00230   0.00000   0.00000
 138       14F-3        0.00094   0.00361   0.00000  -0.00401   0.00415
 139 5   F  1S         -0.01941  -0.01938   0.00000   0.01842  -0.00612
 140        2S          0.04487   0.04827   0.00000  -0.01874   0.05411
 141        3S          0.01601   0.01734   0.00000  -0.00914   0.01601
 142        4S          0.19893   0.16084   0.00000  -0.47584  -0.36868
 143        5S          1.10052   0.94853   0.00000  -2.23719  -3.22864
 144        6PX         0.00000   0.00000  -0.02116   0.00000   0.00000
 145        6PY        -0.01096   0.02479   0.00000  -0.00058   0.05799
 146        6PZ         0.03749  -0.01027   0.00000   0.01646   0.03593
 147        7PX         0.00000   0.00000  -0.02012   0.00000   0.00000
 148        7PY        -0.01704   0.02257   0.00000   0.00381   0.06639
 149        7PZ         0.04248  -0.01166   0.00000   0.02398   0.04122
 150        8PX         0.00000   0.00000  -0.12401   0.00000   0.00000
 151        8PY         0.08197   0.13520   0.00000  -0.35824  -0.17395
 152        8PZ         0.11744  -0.02407   0.00000  -0.23383  -0.26656
 153        9PX         0.00000   0.00000  -0.57501   0.00000   0.00000
 154        9PY        -0.25151   0.19715   0.00000  -0.45743  -0.52278
 155        9PZ         0.15900  -0.34060   0.00000  -0.27792  -1.40949
 156       10D 0        0.00002  -0.00016   0.00000  -0.00094   0.00212
 157       10D+1        0.00000   0.00000  -0.00142   0.00000   0.00000
[...]
     10 -0.721204D-01 -0.221519D-01 -0.383681D-01  0.723658D-02 -0.219379D-02
     11 -0.138413D-01 -0.130062D+00 -0.862106D-01 -0.137035D-01 -0.170216D-01
     12 -0.239737D-01 -0.862107D-01 -0.229611D+00 -0.698438D-02 -0.139736D-01
     13 -0.278977D+00  0.227295D-01  0.393644D-01 -0.362725D-01  0.389374D-02
     14  0.144189D-01 -0.783489D-01  0.336051D-02  0.358851D-01  0.810030D-02
     15  0.249700D-01  0.336068D-02 -0.744675D-01 -0.277370D-02  0.662430D-03
                6             7             8             9            10 
      6  0.609322D-01
      7 -0.649152D-02  0.917591D-01
      8  0.227420D-01  0.464380D-01  0.130625D+00
      9  0.357701D-02 -0.680774D-01 -0.112861D+00  0.242817D+00
     10  0.144734D-02  0.723682D-02  0.235070D-02 -0.117565D-02  0.982732D-01
     11 -0.431255D-01  0.803179D-03  0.122429D-01  0.292235D-02  0.495573D-01
     12 -0.109683D-01 -0.153598D-01 -0.262293D-01 -0.402331D-01  0.858367D-01
     13  0.619226D-03 -0.362733D-01 -0.140974D-02  0.368126D-02 -0.406262D-01
     14 -0.363213D-02 -0.203438D-01  0.887551D-02  0.110948D-02 -0.275622D-01
     15  0.741882D-02  0.296900D-01 -0.318536D-02  0.664437D-02 -0.477403D-01
               11            12            13            14            15 
     11  0.128421D+00
     12  0.133008D+00  0.282007D+00
     13 -0.228156D-01 -0.395188D-01  0.392149D+00
     14  0.642063D-02 -0.659417D-02 -0.239791D-02  0.549525D-01
     15 -0.659407D-02 -0.119485D-02 -0.414603D-02  0.575632D-02  0.615992D-01
 FormGI is forming the generalized inverse of G from B-inverse, IUseBI=4.
 Force constants in internal coordinates: 
                1             2             3             4             5 
      1  0.340047D+00
      2  0.352548D-02  0.340047D+00
      3  0.152042D-01  0.152042D-01  0.392205D+00
      4  0.152042D-01  0.152042D-01  0.561754D-01  0.392205D+00
      5  0.281751D-02  0.281751D-02 -0.616911D-02 -0.117630D-01  0.230023D-01
      6  0.809134D-03 -0.177076D-02  0.143060D-01 -0.193357D-01 -0.113091D-01
      7  0.263281D-02 -0.441671D-02 -0.180603D-01  0.171230D-01 -0.172192D-01
      8 -0.177076D-02  0.809134D-03  0.143060D-01 -0.193357D-01 -0.113091D-01
      9 -0.441671D-02  0.263281D-02 -0.180603D-01  0.171230D-01 -0.172192D-01
     10 -0.166681D-03 -0.166681D-03  0.146945D-01  0.175349D-01  0.353552D-01
     11  0.286124D-02  0.286124D-02  0.105594D-01 -0.390394D-01  0.139861D-01
     12 -0.233932D-02 -0.233932D-02  0.305278D-01 -0.724283D-02 -0.648352D-02
     13  0.235127D-02 -0.469059D-02  0.152639D-01 -0.362141D-02 -0.324176D-02
     14  0.469059D-02 -0.235127D-02 -0.152639D-01  0.362141D-02  0.324176D-02
                6             7             8             9            10 
      6  0.569406D-01
      7 -0.223683D-01  0.112883D+00
      8  0.410102D-02  0.293658D-01  0.569406D-01
      9  0.293658D-01 -0.520001D-01 -0.223683D-01  0.112883D+00
     10 -0.597637D-01 -0.531414D-01 -0.597637D-01 -0.531414D-01  0.200723D+00
     11  0.248100D-01 -0.167752D-01  0.248100D-01 -0.167752D-01 -0.323037D-01
     12  0.949305D-02 -0.174267D-01  0.949305D-02 -0.174267D-01  0.238970D-01
     13  0.218260D-01  0.661959D-02 -0.123329D-01 -0.240463D-01  0.119485D-01
     14  0.123329D-01  0.240463D-01 -0.218260D-01 -0.661959D-02 -0.119485D-01
               11            12            13            14 
     11  0.487279D-01
     12  0.406221D-02  0.301110D-01
     13  0.203111D-02  0.150555D-01  0.365594D-01
     14 -0.203111D-02 -0.150555D-01  0.215039D-01  0.365594D-01
 Leave Link  716 at Fri Sep  6 16:28:15 2024, MaxMem=  1610612736 cpu:               0.2 elap:               0.0
 (Enter /Users/asuyarger/Applications/G16/g16/l103.exe)

 GradGradGradGradGradGradGradGradGradGradGradGradGradGradGradGradGradGrad
 Berny optimization.
 Red2BG is reusing G-inverse.
 Internal  Forces:  Max     0.000000578 RMS     0.000000306
 Search for a local minimum.
 Step number   1 out of a maximum of    2
 All quantities printed in internal units (Hartrees-Bohrs-Radians)
 Second derivative matrix not updated -- analytic derivatives used.
 The second derivative matrix:
                          R1        R2        R3        R4        A1
           R1           0.34005
           R2           0.00353   0.34005
           R3           0.01520   0.01520   0.39221
           R4           0.01520   0.01520   0.05618   0.39221
           A1           0.00282   0.00282  -0.00617  -0.01176   0.02300
           A2           0.00081  -0.00177   0.01431  -0.01934  -0.01131
           A3           0.00263  -0.00442  -0.01806   0.01712  -0.01722
           A4          -0.00177   0.00081   0.01431  -0.01934  -0.01131
           A5          -0.00442   0.00263  -0.01806   0.01712  -0.01722
           A6          -0.00017  -0.00017   0.01469   0.01753   0.03536
           D1           0.00286   0.00286   0.01056  -0.03904   0.01399
           D2          -0.00234  -0.00234   0.03053  -0.00724  -0.00648
           D3           0.00235  -0.00469   0.01526  -0.00362  -0.00324
           D4           0.00469  -0.00235  -0.01526   0.00362   0.00324
                          A2        A3        A4        A5        A6
           A2           0.05694
           A3          -0.02237   0.11288
           A4           0.00410   0.02937   0.05694
           A5           0.02937  -0.05200  -0.02237   0.11288
           A6          -0.05976  -0.05314  -0.05976  -0.05314   0.20072
           D1           0.02481  -0.01678   0.02481  -0.01678  -0.03230
           D2           0.00949  -0.01743   0.00949  -0.01743   0.02390
           D3           0.02183   0.00662  -0.01233  -0.02405   0.01195
           D4           0.01233   0.02405  -0.02183  -0.00662  -0.01195
                          D1        D2        D3        D4
           D1           0.04873
           D2           0.00406   0.03011
           D3           0.00203   0.01506   0.03656
           D4          -0.00203  -0.01506   0.02150   0.03656
 ITU=  0
     Eigenvalues ---    0.04903   0.08821   0.08847   0.18703   0.27687
     Eigenvalues ---    0.33666   0.33707   0.35498   0.46151
 Angle between quadratic step and forces=  39.69 degrees.
 Linear search not attempted -- first point.
 Iteration  1 RMS(Cart)=  0.00000105 RMS(Int)=  0.00000000
 Iteration  2 RMS(Cart)=  0.00000000 RMS(Int)=  0.00000000
 ITry= 1 IFail=0 DXMaxC= 1.50D-06 DCOld= 1.00D+10 DXMaxT= 3.00D-01 DXLimC= 3.00D+00 Rises=F
 ClnCor:  largest displacement from symmetrization is 4.94D-14 for atom     3.
 Variable       Old X    -DE/DX   Delta X   Delta X   Delta X     New X
                                 (Linear)    (Quad)   (Total)
    R1        2.06132   0.00000   0.00000   0.00000   0.00000   2.06132
    R2        2.06132   0.00000   0.00000   0.00000   0.00000   2.06132
    R3        2.55830   0.00000   0.00000   0.00000   0.00000   2.55831
    R4        2.55830   0.00000   0.00000   0.00000   0.00000   2.55831
    A1        1.97590  -0.00000   0.00000  -0.00000  -0.00000   1.97590
    A2        1.89818   0.00000   0.00000   0.00000   0.00000   1.89818
    A3        1.89818   0.00000   0.00000   0.00000   0.00000   1.89818
    A4        1.89818   0.00000   0.00000   0.00000   0.00000   1.89818
    A5        1.89818   0.00000   0.00000   0.00000   0.00000   1.89818
    A6        1.89373  -0.00000   0.00000  -0.00000  -0.00000   1.89373
    D1        2.15903  -0.00000   0.00000  -0.00000  -0.00000   2.15903
    D2       -2.15903   0.00000   0.00000   0.00000   0.00000  -2.15903
    D3        2.06208   0.00000   0.00000   0.00000   0.00000   2.06208
    D4       -2.06208  -0.00000   0.00000  -0.00000  -0.00000  -2.06208
         Item               Value     Threshold  Converged?
 Maximum Force            0.000001     0.000015     YES
 RMS     Force            0.000000     0.000010     YES
 Maximum Displacement     0.000001     0.000060     YES
 RMS     Displacement     0.000001     0.000040     YES
 Predicted change in Energy=-1.842136D-12
 Optimization completed.
    -- Stationary point found.
                           ----------------------------
                           !   Optimized Parameters   !
                           ! (Angstroms and Degrees)  !
 --------------------------                            --------------------------
 ! Name  Definition              Value          Derivative Info.                !
 --------------------------------------------------------------------------------
 ! R1    R(1,2)                  1.0908         -DE/DX =    0.0                 !
 ! R2    R(1,3)                  1.0908         -DE/DX =    0.0                 !
 ! R3    R(1,4)                  1.3538         -DE/DX =    0.0                 !
 ! R4    R(1,5)                  1.3538         -DE/DX =    0.0                 !
 ! A1    A(2,1,3)              113.2107         -DE/DX =    0.0                 !
 ! A2    A(2,1,4)              108.7574         -DE/DX =    0.0                 !
 ! A3    A(2,1,5)              108.7574         -DE/DX =    0.0                 !
 ! A4    A(3,1,4)              108.7574         -DE/DX =    0.0                 !
 ! A5    A(3,1,5)              108.7574         -DE/DX =    0.0                 !
 ! A6    A(4,1,5)              108.5027         -DE/DX =    0.0                 !
 ! D1    D(2,1,4,3)            123.7033         -DE/DX =    0.0                 !
 ! D2    D(2,1,5,3)           -123.7033         -DE/DX =    0.0                 !
 ! D3    D(2,1,5,4)            118.1483         -DE/DX =    0.0                 !
 ! D4    D(3,1,5,4)           -118.1483         -DE/DX =    0.0                 !
 --------------------------------------------------------------------------------
 GradGradGradGradGradGradGradGradGradGradGradGradGradGradGradGradGradGrad

 Leave Link  103 at Fri Sep  6 16:28:15 2024, MaxMem=  1610612736 cpu:               0.1 elap:               0.0
 (Enter /Users/asuyarger/Applications/G16/g16/l9999.exe)

 ----------------------------------------------------------------------

 Electric dipole moment (input orientation):
 (Debye = 10**-18 statcoulomb cm , SI units = C m)
                  (au)            (Debye)         (10**-30 SI)
   Tot        0.758211D+00      0.192718D+01      0.642838D+01
   x          0.437750D+00      0.111265D+01      0.371140D+01
   y         -0.309544D+00     -0.786782D+00     -0.262442D+01
   z         -0.536136D+00     -0.136272D+01     -0.454555D+01

 Dipole polarizability, Alpha (input orientation).
 (esu units = cm**3 , SI units = C**2 m**2 J**-1)
 Alpha(0;0):
               (au)            (10**-24 esu)      (10**-40 SI)
   iso        0.177782D+02      0.263445D+01      0.293122D+01
   aniso      0.166664D+01      0.246970D+00      0.274792D+00
   xx         0.184185D+02      0.272934D+01      0.303680D+01
   yx         0.249867D+00      0.370265D-01      0.411975D-01
   yy         0.171544D+02      0.254202D+01      0.282838D+01
   zx         0.432816D+00      0.641367D-01      0.713617D-01
   zy         0.525780D+00      0.779126D-01      0.866895D-01
   zz         0.177616D+02      0.263199D+01      0.292848D+01

 First dipole hyperpolarizability, Beta (input orientation).
 ||, _|_  parallel and perpendicular components, (z) with respect to z axis,
 vector components x,y,z.  Values do not include the 1/n! factor of 1/2.
 (esu units = statvolt**-1 cm**4 , SI units = C**3 m**3 J**-2)
 Beta(0;0,0):
               (au)            (10**-30 esu)      (10**-50 SI)
   || (z)    -0.278373D+02     -0.240492D+00     -0.892563D-01
   _|_(z)    -0.927909D+01     -0.801641D-01     -0.297521D-01
   x          0.113644D+03      0.981797D+00      0.364384D+00
   y         -0.803607D+02     -0.694254D+00     -0.257665D+00
   z         -0.139186D+03     -0.120246D+01     -0.446282D+00
   ||         0.393678D+02      0.340107D+00      0.126228D+00
   xxx        0.208921D+02      0.180491D+00      0.669875D-01
   xxy       -0.396697D+01     -0.342716D-01     -0.127196D-01
   yxy        0.109523D+02      0.946191D-01      0.351169D-01
   yyy       -0.246701D+02     -0.213131D+00     -0.791014D-01
   xxz       -0.687113D+01     -0.593612D-01     -0.220313D-01
   yxz       -0.425694D+01     -0.367766D-01     -0.136493D-01
   yyz       -0.988100D+01     -0.853642D-01     -0.316821D-01
   zxz        0.603705D+01      0.521554D-01      0.193570D-01
   zyz        0.185024D+01      0.159846D-01      0.593252D-02
   zzz       -0.296433D+02     -0.256095D+00     -0.950472D-01

 ----------------------------------------------------------------------

 Dipole orientation:
     6         -1.20627918         -1.12920650         -1.61539447
     1         -0.91527708          0.56700353         -0.48084002
     1         -1.49728128         -2.82541653         -0.48084002
     9          0.84011225         -1.48028579         -3.11003362
     9         -3.25267061         -0.77812722         -3.11003362

 Electric dipole moment (dipole orientation):
 (Debye = 10**-18 statcoulomb cm , SI units = C m)
                  (au)            (Debye)         (10**-30 SI)
   Tot        0.758211D+00      0.192718D+01      0.642838D+01
   x          0.000000D+00      0.000000D+00      0.000000D+00
   y          0.000000D+00      0.000000D+00      0.000000D+00
   z          0.758211D+00      0.192718D+01      0.642838D+01

 Dipole polarizability, Alpha (dipole orientation).
 (esu units = cm**3 , SI units = C**2 m**2 J**-1)
 Alpha(0;0):
               (au)            (10**-24 esu)      (10**-40 SI)
   iso        0.177782D+02      0.263445D+01      0.293122D+01
   aniso      0.166664D+01      0.246970D+00      0.274792D+00
   xx         0.187170D+02      0.277357D+01      0.308601D+01
   yx        -0.320149D+00     -0.474411D-01     -0.527854D-01
   yy         0.169058D+02      0.250518D+01      0.278739D+01
   zx         0.000000D+00      0.000000D+00      0.000000D+00
   zy         0.000000D+00      0.000000D+00      0.000000D+00
   zz         0.177117D+02      0.262461D+01      0.292027D+01

 First dipole hyperpolarizability, Beta (dipole orientation).
 ||, _|_  parallel and perpendicular components, (z) with respect to z axis,
 vector components x,y,z.  Values do not include the 1/n! factor of 1/2.
 (esu units = statvolt**-1 cm**4 , SI units = C**3 m**3 J**-2)
 Beta(0;0,0):
               (au)            (10**-30 esu)      (10**-50 SI)
   || (z)     0.393678D+02      0.340107D+00      0.126228D+00
   _|_(z)     0.131226D+02      0.113369D+00      0.420758D-01
   x          0.000000D+00      0.000000D+00      0.000000D+00
   y          0.000000D+00      0.000000D+00      0.000000D+00
   z          0.196839D+03      0.170054D+01      0.631138D+00
   ||         0.393678D+02      0.340107D+00      0.126228D+00
   xxx        0.000000D+00      0.000000D+00      0.000000D+00
   xxy        0.000000D+00      0.000000D+00      0.000000D+00
   yxy        0.000000D+00      0.000000D+00      0.000000D+00
   yyy        0.000000D+00      0.000000D+00      0.000000D+00
   xxz        0.135203D+02      0.116805D+00      0.433511D-01
   yxz        0.166530D+01      0.143869D-01      0.533956D-02
   yyz        0.229414D+02      0.198196D+00      0.735586D-01
   zxz        0.000000D+00      0.000000D+00      0.000000D+00
   zyz        0.000000D+00      0.000000D+00      0.000000D+00
   zzz        0.291513D+02      0.251844D+00      0.934695D-01

 ----------------------------------------------------------------------
 1\1\GINC-JEFFSMACSTUDIO\Freq\RwB97XD\Aug-CC-pVTZ\C1H2F2\ROOT\06-Sep-20
 24\0\\#P Geom=AllCheck Guess=TCheck SCRF=Check GenChk RwB97XD/Aug-CC-p
 VTZ Freq\\R32 DFT WB97XD aug-cc-pVTZ Opt Freq - Full - NBO\\0,1\C,-0.9
 247216782,0.8000612568,-0.0080370224\H,-0.578104644,-0.2337446724,0.02
 27845691\H,-0.5780852117,1.3436501818,-0.8879246737\F,-0.484251966,1.4
 401256661,1.1005965759\F,-2.2784695736,0.8057988442,0.0018718859\\Vers
 ion=EM64M-G16RevA.03\State=1-A1\HF=-239.016897\RMSD=1.091e-09\RMSF=2.9
 16e-07\ZeroPoint=0.0329139\Thermal=0.0360318\Dipole=0.4377498,-0.30954
 39,-0.5361364\DipoleDeriv=1.3884927,0.1168166,0.2023468,0.1168166,0.83
 77622,0.2225727,0.2023467,0.2225727,1.0947728,0.0074852,0.0244195,0.00
 49842,0.0658118,-0.1125913,-0.0314005,-0.0189129,0.0361932,0.0291599,0
 .0074834,-0.0078939,0.0236426,-0.0492862,-0.0083521,0.0963742,0.047539
 7,0.0287804,-0.0750775,-0.3921876,-0.0851181,-0.1474313,-0.157674,-0.4
 357941,-0.2778094,-0.273102,-0.2778078,-0.7565859,-1.0112737,-0.048224
 1,-0.0835422,0.0243319,-0.2810246,-0.0097369,0.0421284,-0.0097385,-0.2
 922693\Polar=18.4185102,0.2498671,17.1544226,0.4328161,0.5257805,17.76
 1554\PolarDeriv=2.5747068,0.2719845,-3.0331959,0.4712719,0.5920941,-2.
 3495795,0.1580965,-2.4423044,4.3374609,0.1579484,0.2759545,-2.5099013,
 0.2739943,0.1579636,1.3066368,-2.2600049,-3.104964,1.8585664,1.3391471
 ,-1.679467,1.862678,-0.0405161,-0.0597241,0.7049792,-2.107455,1.834326
 ,-7.5214406,-0.0813677,-0.2817706,-1.2543233,0.1349352,-0.0686825,-0.0
 764948,0.6736055,-0.8539117,-0.155043,1.3392485,0.8046707,1.0461509,-1
 .4747565,-0.5311769,1.5216051,1.1706098,1.0287742,1.811653,-0.5337935,
 -1.6856079,2.3756152,-1.757679,-0.5464778,-1.9297359,1.479236,1.997635
 9,-5.7859882,1.7101629,1.0043547,0.3266597,1.7396122,0.4546981,0.85171
 83,0.8433511,1.0708485,1.6447776,0.5034607,1.8177177,1.1877908,1.46073
 03,0.5034495,0.6353697,1.6522194,1.8704094,4.2708417,-6.9632653,-0.401
 5428,-0.202293,-0.6956115,-0.4558913,-0.7287233,-0.0646024,-1.4916442,
 -0.2724508,-0.046248,-0.1262939,0.2008188,-0.1119808,-0.0462527,0.0642
 244,-1.5450562,0.0908302,-0.1883769\HyperPolar=20.8920692,-3.9669736,1
 0.9522712,-24.6701486,-6.871127,-4.2569381,-9.8810023,6.0370532,1.8502
 35,-29.6433171\Quadrupole=-0.9439751,0.7197189,0.2242562,-0.6508657,-1
 .1273734,-0.4290554\PG=C02V [C2(C1),SGV(F2),SGV'(H2)]\NImag=0\\0.49310
 112,-0.03674583,0.64338828,-0.06364955,-0.05676214,0.57784317,-0.07100
 045,0.06815932,0.00241458,0.09175596,0.07537800,-0.29341246,0.02007844
 ,-0.08217162,0.31251249,-0.00175298,0.03186655,-0.06095972,0.00617794,
 -0.00785094,0.06093223,-0.07100309,-0.03199103,0.06023871,0.00828040,0
 .00509367,-0.00649152,0.09175912,-0.03920971,-0.14156445,0.11953377,-0
 .00816924,-0.01017870,0.02274202,0.04643799,0.13062471,0.06440627,0.10
 774565,-0.21280508,0.00116556,0.00108369,0.00357701,-0.06807744,-0.112
 86117,0.24281684,-0.07212036,-0.02215193,-0.03836810,0.00723658,-0.002
 19379,0.00144734,0.00723682,0.00235070,-0.00117565,0.09827317,-0.01384
 134,-0.13006245,-0.08621057,-0.01370353,-0.01702163,-0.04312551,0.0008
 0318,0.01224294,0.00292235,0.04955726,0.12842051,-0.02397374,-0.086210
 75,-0.22961085,-0.00698438,-0.01397362,-0.01096833,-0.01535978,-0.0262
 2926,-0.04023313,0.08583670,0.13300780,0.28200716,-0.27897722,0.022729
 47,0.03936436,-0.03627249,0.00389374,0.00061923,-0.03627325,-0.0014097
 4,0.00368126,-0.04062620,-0.02281556,-0.03951881,0.39214917,0.01441888
 ,-0.07834892,0.00336051,0.03588508,0.00810030,-0.00363213,-0.02034382,
 0.00887551,0.00110948,-0.02756224,0.00642063,-0.00659417,-0.00239791,0
 .05495248,0.02497000,0.00336068,-0.07446752,-0.00277370,0.00066243,0.0
 0741882,0.02969003,-0.00318536,0.00664437,-0.04774029,-0.00659407,-0.0
 0119485,-0.00414603,0.00575632,0.06159919\\0.,0.,0.,-0.00000025,0.0000
 0045,0.00000016,-0.00000025,-0.00000009,0.00000047,-0.00000008,-0.0000
 0029,-0.00000051,0.00000058,-0.00000006,-0.00000011\\\@


 GOD GAVE US TWO ENDS... ONE TO SIT ON...    
 AND THE OTHER TO THINK WITH...              
 YOUR SUCCESS DEPENDS UPON WHICH END YOU     
 USE THE MOST...                             
                                             
 IT'S A CASE OF HEADS YOU WIN TAILS YOU LOSE.
          SOURCE UNKNOWN(IT'S JUST AS WELL.) 
 Job cpu time:       0 days  0 hours  0 minutes 24.9 seconds.
 Elapsed time:       0 days  0 hours  0 minutes 23.9 seconds.
 File lengths (MBytes):  RWF=     27 Int=      0 D2E=      0 Chk=      4 Scr=      1
 Normal termination of Gaussian 16 at Fri Sep  6 16:28:15 2024.
