 Entering Gaussian System, Link 0=g16
 Input=/Users/asuyarger/Downloads/r32_DFT_B3LPY_6311pp2d3p_Opt_Freq_Full_NBO.gjf
 Output=/Users/asuyarger/Downloads/r32_DFT_B3LPY_6311pp2d3p_Opt_Freq_Full_NBO.log
 Initial command:
 /Users/asuyarger/Applications/G16/g16/l1.exe "/Users/asuyarger/Applications/G16/scratch/Gau-89378.inp" -scrdir="/Users/asuyarger/Applications/G16/scratch/"
 Entering Link 1 = /Users/asuyarger/Applications/G16/g16/l1.exe PID=     89379.
  
 Copyright (c) 1988,1990,1992,1993,1995,1998,2003,2009,2016,
            Gaussian, Inc.  All Rights Reserved.
  
 This is part of the Gaussian(R) 16 program.  It is based on
 the Gaussian(R) 09 system (copyright 2009, Gaussian, Inc.),
 the Gaussian(R) 03 system (copyright 2003, Gaussian, Inc.),
 the Gaussian(R) 98 system (copyright 1998, Gaussian, Inc.),
 the Gaussian(R) 94 system (copyright 1995, Gaussian, Inc.),
 the Gaussian 92(TM) system (copyright 1992, Gaussian, Inc.),
 the Gaussian 90(TM) system (copyright 1990, Gaussian, Inc.),
 the Gaussian 88(TM) system (copyright 1988, Gaussian, Inc.),
 the Gaussian 86(TM) system (copyright 1986, Carnegie Mellon
 University), and the Gaussian 82(TM) system (copyright 1983,
 Carnegie Mellon University). Gaussian is a federally registered
 trademark of Gaussian, Inc.
  
 This software contains proprietary and confidential information,
 including trade secrets, belonging to Gaussian, Inc.
  
 This software is provided under written license and may be
 used, copied, transmitted, or stored only in accord with that
 written license.
  
 The following legend is applicable only to US Government
 contracts under FAR:
  
                    RESTRICTED RIGHTS LEGEND
  
 Use, reproduction and disclosure by the US Government is
 subject to restrictions as set forth in subparagraphs (a)
 and (c) of the Commercial Computer Software - Restricted
 Rights clause in FAR 52.227-19.
  
 Gaussian, Inc.
 340 Quinnipiac St., Bldg. 40, Wallingford CT 06492
  
  
 ---------------------------------------------------------------
 Warning -- This program may not be used in any manner that
 competes with the business of Gaussian, Inc. or will provide
 assistance to any competitor of Gaussian, Inc.  The licensee
 of this program is prohibited from giving any competitor of
 Gaussian, Inc. access to this program.  By using this program,
 the user acknowledges that Gaussian, Inc. is engaged in the
 business of creating and licensing software in the field of
 computational chemistry and represents and warrants to the
 licensee that it is not a competitor of Gaussian, Inc. and that
 it will not use this program in any manner prohibited above.
 ---------------------------------------------------------------
  

 Cite this work as:
 Gaussian 16, Revision A.03,
 M. J. Frisch, G. W. Trucks, H. B. Schlegel, G. E. Scuseria, 
 M. A. Robb, J. R. Cheeseman, G. Scalmani, V. Barone, 
 G. A. Petersson, H. Nakatsuji, X. Li, M. Caricato, A. V. Marenich, 
 J. Bloino, B. G. Janesko, R. Gomperts, B. Mennucci, H. P. Hratchian, 
 J. V. Ortiz, A. F. Izmaylov, J. L. Sonnenberg, D. Williams-Young, 
 F. Ding, F. Lipparini, F. Egidi, J. Goings, B. Peng, A. Petrone, 
 T. Henderson, D. Ranasinghe, V. G. Zakrzewski, J. Gao, N. Rega, 
 G. Zheng, W. Liang, M. Hada, M. Ehara, K. Toyota, R. Fukuda, 
 J. Hasegawa, M. Ishida, T. Nakajima, Y. Honda, O. Kitao, H. Nakai, 
 T. Vreven, K. Throssell, J. A. Montgomery, Jr., J. E. Peralta, 
 F. Ogliaro, M. J. Bearpark, J. J. Heyd, E. N. Brothers, K. N. Kudin, 
 V. N. Staroverov, T. A. Keith, R. Kobayashi, J. Normand, 
 K. Raghavachari, A. P. Rendell, J. C. Burant, S. S. Iyengar, 
 J. Tomasi, M. Cossi, J. M. Millam, M. Klene, C. Adamo, R. Cammi, 
 J. W. Ochterski, R. L. Martin, K. Morokuma, O. Farkas, 
 J. B. Foresman, and D. J. Fox, Gaussian, Inc., Wallingford CT, 2016.
 
 ******************************************
 Gaussian 16:  EM64M-G16RevA.03 25-Dec-2016
                 6-Sep-2024 
 ******************************************
 %nprocshared=10
 Will use up to   10 processors via shared memory.
 %mem=8GB
 %chk=r32_DFT_B3LPY_6311pp2d3p_Opt_Freq_Full_NBO.chk
 ----------------------------------------------------------------------
 #p opt=tight freq b3lyp/6-311++g(2d,3p) guess=save pop=(hirshfeld,full
 ,nbo) geom=connectivity polar
 ----------------------------------------------------------------------
 1/7=10,18=20,19=15,26=3,38=1,57=2/1,3;
 2/9=110,12=2,17=6,18=5,40=1/2;
 3/5=4,6=6,7=1512,11=2,25=1,30=1,71=1,74=-5/1,2,3;
 4//1;
 5/5=2,38=5,98=1/2;
 6/7=3,28=1,40=1,79=1/1,7;
 7//1,2,3,16;
 1/7=10,18=20,19=15,26=3/3(2);
 2/9=110/2;
 99//99;
 2/9=110/2;
 3/5=4,6=6,7=1512,11=2,25=1,30=1,71=1,74=-5/1,2,3;
 4/5=5,16=3,69=1/1;
 5/5=2,38=5,98=1/2;
 7//1,2,3,16;
 1/7=10,18=20,19=15,26=3/3(-5);
 2/9=110/2;
 6/7=3,19=2,28=1,40=1,79=1/1,7;
 99/9=1/99;
 Leave Link    1 at Fri Sep  6 11:01:54 2024, MaxMem=  1073741824 cpu:               0.2 elap:               0.0
 (Enter /Users/asuyarger/Applications/G16/g16/l101.exe)
 ---------------------------------------------------
 R32 DFT B3LPY 6-311++g(2d,3p) Opt Freq - Full - NBO
 ---------------------------------------------------
 Symbolic Z-matrix:
 Charge =  0 Multiplicity = 1
 C                    -0.93128   0.8047    0. 
 H                    -0.57463  -0.20411  0. 
 H                    -0.57461   1.3091   -0.87365 
 F                    -0.48128   1.44109   1.10227 
 F                    -2.28128   0.80472  0. 
 
 ITRead=  0  0  0  0  0
 MicOpt= -1 -1 -1 -1 -1
 NAtoms=      5 NQM=        5 NQMF=       0 NMMI=      0 NMMIF=      0
                NMic=       0 NMicF=      0.
                    Isotopes and Nuclear Properties:
 (Nuclear quadrupole moments (NQMom) in fm**2, nuclear magnetic moments (NMagM)
  in nuclear magnetons)

  Atom         1           2           3           4           5
 IAtWgt=          12           1           1          19          19
 AtmWgt=  12.0000000   1.0078250   1.0078250  18.9984033  18.9984033
 NucSpn=           0           1           1           1           1
 AtZEff=  -0.0000000  -0.0000000  -0.0000000  -0.0000000  -0.0000000
 NQMom=    0.0000000   0.0000000   0.0000000   0.0000000   0.0000000
 NMagM=    0.0000000   2.7928460   2.7928460   2.6288670   2.6288670
 AtZNuc=   6.0000000   1.0000000   1.0000000   9.0000000   9.0000000
 Leave Link  101 at Fri Sep  6 11:01:54 2024, MaxMem=  1073741824 cpu:               1.5 elap:               0.2
 (Enter /Users/asuyarger/Applications/G16/g16/l103.exe)

 GradGradGradGradGradGradGradGradGradGradGradGradGradGradGradGradGradGrad
 Berny optimization.
 Initialization pass.
                           ----------------------------
                           !    Initial Parameters    !
                           ! (Angstroms and Degrees)  !
 --------------------------                            --------------------------
 ! Name  Definition              Value          Derivative Info.                !
 --------------------------------------------------------------------------------
 ! R1    R(1,2)                  1.07           estimate D2E/DX2                !
 ! R2    R(1,3)                  1.07           estimate D2E/DX2                !
 ! R3    R(1,4)                  1.35           estimate D2E/DX2                !
 ! R4    R(1,5)                  1.35           estimate D2E/DX2                !
 ! A1    A(2,1,3)              109.4712         estimate D2E/DX2                !
 ! A2    A(2,1,4)              109.4712         estimate D2E/DX2                !
 ! A3    A(2,1,5)              109.4712         estimate D2E/DX2                !
 ! A4    A(3,1,4)              109.4712         estimate D2E/DX2                !
 ! A5    A(3,1,5)              109.4712         estimate D2E/DX2                !
 ! A6    A(4,1,5)              109.4712         estimate D2E/DX2                !
 ! D1    D(2,1,4,3)            120.0            estimate D2E/DX2                !
 ! D2    D(2,1,5,3)           -120.0            estimate D2E/DX2                !
 ! D3    D(2,1,5,4)            120.0            estimate D2E/DX2                !
 ! D4    D(3,1,5,4)           -120.0            estimate D2E/DX2                !
 --------------------------------------------------------------------------------
 Trust Radius=3.00D-01 FncErr=1.00D-07 GrdErr=1.00D-06 EigMax=2.50D+02 EigMin=1.00D-04
 Number of steps in this run=     24 maximum allowed number of steps=    100.
 GradGradGradGradGradGradGradGradGradGradGradGradGradGradGradGradGradGrad

 Leave Link  103 at Fri Sep  6 11:01:54 2024, MaxMem=  1073741824 cpu:               0.1 elap:               0.0
 (Enter /Users/asuyarger/Applications/G16/g16/l202.exe)
                          Input orientation:                          
 ---------------------------------------------------------------------
 Center     Atomic      Atomic             Coordinates (Angstroms)
 Number     Number       Type             X           Y           Z
 ---------------------------------------------------------------------
      1          6           0       -0.931284    0.804702    0.000000
      2          1           0       -0.574630   -0.204109   -0.000000
      3          1           0       -0.574611    1.309100   -0.873651
      4          9           0       -0.481276    1.441092    1.102270
      5          9           0       -2.281284    0.804718   -0.000000
 ---------------------------------------------------------------------
                    Distance matrix (angstroms):
                    1          2          3          4          5
     1  C    0.000000
     2  H    1.070000   0.000000
     3  H    1.070000   1.747303   0.000000
     4  F    1.350000   1.982524   1.982524   0.000000
     5  F    1.350000   1.982524   1.982524   2.204541   0.000000
 Stoichiometry    CH2F2
 Framework group  C2V[C2(C),SGV(F2),SGV'(H2)]
 Deg. of freedom     4
 Full point group                 C2V     NOp   4
 Largest Abelian subgroup         C2V     NOp   4
 Largest concise Abelian subgroup C2V     NOp   4
                         Standard orientation:                         
 ---------------------------------------------------------------------
 Center     Atomic      Atomic             Coordinates (Angstroms)
 Number     Number       Type             X           Y           Z
 ---------------------------------------------------------------------
      1          6           0       -0.000000    0.000000    0.492080
      2          1           0       -0.873651    0.000000    1.109845
      3          1           0        0.873651    0.000000    1.109845
      4          9           0        0.000000    1.102270   -0.287343
      5          9           0       -0.000000   -1.102270   -0.287343
 ---------------------------------------------------------------------
 Rotational constants (GHZ):          50.9657562          10.5939265           9.2655813
 Leave Link  202 at Fri Sep  6 11:01:54 2024, MaxMem=  1073741824 cpu:               0.0 elap:               0.0
 (Enter /Users/asuyarger/Applications/G16/g16/l301.exe)
 Standard basis: 6-311++G(2d,3p) (5D, 7F)
 Ernie: Thresh=  0.10000D-02 Tol=  0.10000D-05 Strict=F.
 There are    46 symmetry adapted cartesian basis functions of A1  symmetry.
 There are    13 symmetry adapted cartesian basis functions of A2  symmetry.
 There are    24 symmetry adapted cartesian basis functions of B1  symmetry.
 There are    30 symmetry adapted cartesian basis functions of B2  symmetry.
 There are    42 symmetry adapted basis functions of A1  symmetry.
 There are    13 symmetry adapted basis functions of A2  symmetry.
 There are    24 symmetry adapted basis functions of B1  symmetry.
 There are    28 symmetry adapted basis functions of B2  symmetry.
   107 basis functions,   156 primitive gaussians,   113 cartesian basis functions
    13 alpha electrons       13 beta electrons
       nuclear repulsion energy        77.6240968989 Hartrees.
 IExCor=  402 DFT=T Ex+Corr=B3LYP ExCW=0 ScaHFX=  0.200000
 ScaDFX=  0.800000  0.720000  1.000000  0.810000 ScalE2=  1.000000  1.000000
 IRadAn=      5 IRanWt=     -1 IRanGd=            0 ICorTp=0 IEmpDi=  4
 NAtoms=    5 NActive=    5 NUniq=    3 SFac= 2.78D+00 NAtFMM=   60 NAOKFM=F Big=F
 Integral buffers will be    131072 words long.
 Raffenetti 2 integral format.
 Two-electron integral symmetry is turned on.
 Leave Link  301 at Fri Sep  6 11:01:55 2024, MaxMem=  1073741824 cpu:               0.2 elap:               0.0
 (Enter /Users/asuyarger/Applications/G16/g16/l302.exe)
 NPDir=0 NMtPBC=     1 NCelOv=     1 NCel=       1 NClECP=     1 NCelD=      1
         NCelK=      1 NCelE2=     1 NClLst=     1 CellRange=     0.0.
 One-electron integrals computed using PRISM.
 One-electron integral symmetry used in STVInt
 NBasis=   107 RedAO= T EigKep=  6.28D-04  NBF=    42    13    24    28
 NBsUse=   107 1.00D-06 EigRej= -1.00D+00 NBFU=    42    13    24    28
 Precomputing XC quadrature grid using
 IXCGrd= 4 IRadAn=           5 IRanWt=          -1 IRanGd=           0 AccXCQ= 0.00D+00.
 Generated NRdTot=       0 NPtTot=           0 NUsed=           0 NTot=          32
 NSgBfM=   113   113   113   113   113 MxSgAt=     5 MxSgA2=     5.
 Leave Link  302 at Fri Sep  6 11:01:55 2024, MaxMem=  1073741824 cpu:               0.8 elap:               0.1
 (Enter /Users/asuyarger/Applications/G16/g16/l303.exe)
 DipDrv:  MaxL=1.
 Leave Link  303 at Fri Sep  6 11:01:55 2024, MaxMem=  1073741824 cpu:               0.2 elap:               0.0
 (Enter /Users/asuyarger/Applications/G16/g16/l401.exe)
 ExpMin= 3.60D-02 ExpMax= 1.14D+04 ExpMxC= 1.72D+03 IAcc=3 IRadAn=         5 AccDes= 0.00D+00
 Harris functional with IExCor=  402 and IRadAn=       5 diagonalized for initial guess.
 HarFok:  IExCor=  402 AccDes= 0.00D+00 IRadAn=         5 IDoV= 1 UseB2=F ITyADJ=14
 ICtDFT=  3500011 ScaDFX=  1.000000  1.000000  1.000000  1.000000
 FoFCou: FMM=F IPFlag=           0 FMFlag=      100000 FMFlg1=           0
         NFxFlg=           0 DoJE=T BraDBF=F KetDBF=T FulRan=T
         wScrn=  0.000000 ICntrl=       500 IOpCl=  0 I1Cent=   200000004 NGrid=           0
         NMat0=    1 NMatS0=      1 NMatT0=    0 NMatD0=    1 NMtDS0=    0 NMtDT0=    0
 Petite list used in FoFCou.
 Harris En= -239.051250915176    
 JPrj=0 DoOrth=F DoCkMO=F.
 Initial guess orbital symmetries:
       Occupied  (A1) (B2) (A1) (A1) (B2) (A1) (A1) (B2) (B1) (A2)
                 (A1) (B2) (B1)
       Virtual   (A1) (B2) (A1) (B1) (B1) (A1) (B2) (A1) (A1) (B1)
                 (B2) (A2) (A1) (A1) (B2) (B1) (A1) (B2) (B1) (A2)
                 (A1) (A1) (B1) (B2) (B1) (A1) (B2) (B1) (A1) (A2)
                 (A1) (A1) (B2) (A1) (B1) (B2) (A2) (A1) (A1) (B1)
                 (B2) (B1) (A2) (A1) (B2) (B1) (B2) (A2) (A1) (B2)
                 (B2) (A1) (A1) (B1) (B1) (B2) (A1) (B1) (A1) (A2)
                 (A1) (B2) (A2) (B1) (A1) (A1) (B2) (B1) (A1) (A2)
                 (A1) (B1) (B2) (A1) (B2) (B1) (A2) (B2) (A1) (A1)
                 (B1) (A2) (B2) (A1) (B1) (B2) (B1) (A2) (A1) (A1)
                 (B2) (A1) (B2) (A1)
 The electronic state of the initial guess is 1-A1.
 Leave Link  401 at Fri Sep  6 11:01:55 2024, MaxMem=  1073741824 cpu:               1.1 elap:               0.2
 (Enter /Users/asuyarger/Applications/G16/g16/l502.exe)
 Keep R1 ints in memory in symmetry-blocked form, NReq=26087430.
 FoFCou: FMM=F IPFlag=           0 FMFlag=           0 FMFlg1=           0
         NFxFlg=           0 DoJE=F BraDBF=F KetDBF=F FulRan=T
         wScrn=  0.000000 ICntrl=       600 IOpCl=  0 I1Cent=           0 NGrid=           0
         NMat0=    1 NMatS0=   5778 NMatT0=    0 NMatD0=    1 NMtDS0=    0 NMtDT0=    0
 Petite list used in FoFCou.
 Closed shell SCF:
 Using DIIS extrapolation, IDIIS=  1040.
 NGot=  1073741824 LenX=  1069461296 LenY=  1069448086
 Requested convergence on RMS density matrix=1.00D-08 within 128 cycles.
 Requested convergence on MAX density matrix=1.00D-06.
 Requested convergence on             energy=1.00D-06.
 No special actions if energy rises.

 Cycle   1  Pass 1  IDiag  1:
 E= -239.047978683613    
 DIIS: error= 1.99D-02 at cycle   1 NSaved=   1.
 NSaved= 1 IEnMin= 1 EnMin= -239.047978683613     IErMin= 1 ErrMin= 1.99D-02
 ErrMax= 1.99D-02  0.00D+00 EMaxC= 1.00D-01 BMatC= 4.52D-02 BMatP= 4.52D-02
 IDIUse=3 WtCom= 8.01D-01 WtEn= 1.99D-01
 Coeff-Com:  0.100D+01
 Coeff-En:   0.100D+01
 Coeff:      0.100D+01
 Gap=     0.318 Goal=   None    Shift=    0.000
 GapD=    0.318 DampG=1.000 DampE=0.500 DampFc=0.5000 IDamp=-1.
 Damping current iteration by 5.00D-01
 RMSDP=1.85D-03 MaxDP=3.45D-02              OVMax= 5.84D-02

 Cycle   2  Pass 1  IDiag  1:
 E= -239.057312979817     Delta-E=       -0.009334296204 Rises=F Damp=T
 DIIS: error= 6.87D-03 at cycle   2 NSaved=   2.
 NSaved= 2 IEnMin= 2 EnMin= -239.057312979817     IErMin= 2 ErrMin= 6.87D-03
 ErrMax= 6.87D-03  0.00D+00 EMaxC= 1.00D-01 BMatC= 3.80D-03 BMatP= 4.52D-02
 IDIUse=3 WtCom= 9.31D-01 WtEn= 6.87D-02
 Coeff-Com:  0.764D-01 0.924D+00
 Coeff-En:   0.159D+00 0.841D+00
 Coeff:      0.821D-01 0.918D+00
 Gap=     0.356 Goal=   None    Shift=    0.000
 RMSDP=5.28D-04 MaxDP=1.30D-02 DE=-9.33D-03 OVMax= 3.94D-02

 Cycle   3  Pass 1  IDiag  1:
 E= -239.070172304011     Delta-E=       -0.012859324194 Rises=F Damp=F
 DIIS: error= 5.47D-03 at cycle   3 NSaved=   3.
 NSaved= 3 IEnMin= 3 EnMin= -239.070172304011     IErMin= 3 ErrMin= 5.47D-03
 ErrMax= 5.47D-03  0.00D+00 EMaxC= 1.00D-01 BMatC= 1.86D-03 BMatP= 3.80D-03
 IDIUse=3 WtCom= 9.45D-01 WtEn= 5.47D-02
 Coeff-Com: -0.749D-01 0.386D+00 0.689D+00
 Coeff-En:   0.000D+00 0.000D+00 0.100D+01
 Coeff:     -0.708D-01 0.365D+00 0.706D+00
 Gap=     0.354 Goal=   None    Shift=    0.000
 RMSDP=2.23D-04 MaxDP=7.98D-03 DE=-1.29D-02 OVMax= 1.04D-02

 Cycle   4  Pass 1  IDiag  1:
 E= -239.071269486722     Delta-E=       -0.001097182711 Rises=F Damp=F
 DIIS: error= 1.32D-03 at cycle   4 NSaved=   4.
 NSaved= 4 IEnMin= 4 EnMin= -239.071269486722     IErMin= 4 ErrMin= 1.32D-03
 ErrMax= 1.32D-03  0.00D+00 EMaxC= 1.00D-01 BMatC= 9.46D-05 BMatP= 1.86D-03
 IDIUse=3 WtCom= 9.87D-01 WtEn= 1.32D-02
 Coeff-Com: -0.235D-01 0.949D-01 0.277D+00 0.651D+00
 Coeff-En:   0.000D+00 0.000D+00 0.000D+00 0.100D+01
 Coeff:     -0.231D-01 0.937D-01 0.274D+00 0.656D+00
 Gap=     0.352 Goal=   None    Shift=    0.000
 RMSDP=5.94D-05 MaxDP=2.94D-03 DE=-1.10D-03 OVMax= 2.51D-03

 Cycle   5  Pass 1  IDiag  1:
 E= -239.071342603608     Delta-E=       -0.000073116886 Rises=F Damp=F
 DIIS: error= 3.43D-04 at cycle   5 NSaved=   5.
 NSaved= 5 IEnMin= 5 EnMin= -239.071342603608     IErMin= 5 ErrMin= 3.43D-04
 ErrMax= 3.43D-04  0.00D+00 EMaxC= 1.00D-01 BMatC= 5.90D-06 BMatP= 9.46D-05
 IDIUse=3 WtCom= 9.97D-01 WtEn= 3.43D-03
 Coeff-Com: -0.469D-02 0.860D-02 0.610D-01 0.273D+00 0.662D+00
 Coeff-En:   0.000D+00 0.000D+00 0.000D+00 0.000D+00 0.100D+01
 Coeff:     -0.468D-02 0.857D-02 0.608D-01 0.272D+00 0.663D+00
 Gap=     0.353 Goal=   None    Shift=    0.000
 RMSDP=1.30D-05 MaxDP=5.38D-04 DE=-7.31D-05 OVMax= 4.99D-04

 Cycle   6  Pass 1  IDiag  1:
 E= -239.071347036532     Delta-E=       -0.000004432923 Rises=F Damp=F
 DIIS: error= 1.31D-05 at cycle   6 NSaved=   6.
 NSaved= 6 IEnMin= 6 EnMin= -239.071347036532     IErMin= 6 ErrMin= 1.31D-05
 ErrMax= 1.31D-05  0.00D+00 EMaxC= 1.00D-01 BMatC= 1.13D-08 BMatP= 5.90D-06
 IDIUse=1 WtCom= 1.00D+00 WtEn= 0.00D+00
 Coeff-Com: -0.388D-03 0.744D-04 0.610D-02 0.336D-01 0.922D-01 0.868D+00
 Coeff:     -0.388D-03 0.744D-04 0.610D-02 0.336D-01 0.922D-01 0.868D+00
 Gap=     0.353 Goal=   None    Shift=    0.000
 RMSDP=7.85D-07 MaxDP=8.80D-06 DE=-4.43D-06 OVMax= 2.68D-05

 Cycle   7  Pass 1  IDiag  1:
 E= -239.071347042920     Delta-E=       -0.000000006388 Rises=F Damp=F
 DIIS: error= 2.61D-06 at cycle   7 NSaved=   7.
 NSaved= 7 IEnMin= 7 EnMin= -239.071347042920     IErMin= 7 ErrMin= 2.61D-06
 ErrMax= 2.61D-06  0.00D+00 EMaxC= 1.00D-01 BMatC= 5.48D-10 BMatP= 1.13D-08
 IDIUse=1 WtCom= 1.00D+00 WtEn= 0.00D+00
 Coeff-Com:  0.214D-04-0.160D-03-0.284D-03 0.201D-03 0.464D-04 0.167D+00
 Coeff-Com:  0.833D+00
 Coeff:      0.214D-04-0.160D-03-0.284D-03 0.201D-03 0.464D-04 0.167D+00
 Coeff:      0.833D+00
 Gap=     0.353 Goal=   None    Shift=    0.000
 RMSDP=1.32D-07 MaxDP=2.51D-06 DE=-6.39D-09 OVMax= 4.64D-06

 Cycle   8  Pass 1  IDiag  1:
 E= -239.071347043202     Delta-E=       -0.000000000282 Rises=F Damp=F
 DIIS: error= 3.95D-07 at cycle   8 NSaved=   8.
 NSaved= 8 IEnMin= 8 EnMin= -239.071347043202     IErMin= 8 ErrMin= 3.95D-07
 ErrMax= 3.95D-07  0.00D+00 EMaxC= 1.00D-01 BMatC= 5.19D-12 BMatP= 5.48D-10
 IDIUse=1 WtCom= 1.00D+00 WtEn= 0.00D+00
 Coeff-Com:  0.392D-05-0.533D-05-0.130D-03-0.510D-03-0.160D-02-0.268D-04
 Coeff-Com:  0.368D-01 0.965D+00
 Coeff:      0.392D-05-0.533D-05-0.130D-03-0.510D-03-0.160D-02-0.268D-04
 Coeff:      0.368D-01 0.965D+00
 Gap=     0.353 Goal=   None    Shift=    0.000
 RMSDP=2.47D-08 MaxDP=7.47D-07 DE=-2.82D-10 OVMax= 6.60D-07

 Cycle   9  Pass 1  IDiag  1:
 E= -239.071347043206     Delta-E=       -0.000000000004 Rises=F Damp=F
 DIIS: error= 4.39D-08 at cycle   9 NSaved=   9.
 NSaved= 9 IEnMin= 9 EnMin= -239.071347043206     IErMin= 9 ErrMin= 4.39D-08
 ErrMax= 4.39D-08  0.00D+00 EMaxC= 1.00D-01 BMatC= 1.07D-13 BMatP= 5.19D-12
 IDIUse=1 WtCom= 1.00D+00 WtEn= 0.00D+00
 Coeff-Com:  0.345D-06 0.721D-06-0.901D-05-0.522D-04-0.162D-03-0.201D-02
 Coeff-Com: -0.905D-02 0.155D+00 0.856D+00
 Coeff:      0.345D-06 0.721D-06-0.901D-05-0.522D-04-0.162D-03-0.201D-02
 Coeff:     -0.905D-02 0.155D+00 0.856D+00
 Gap=     0.353 Goal=   None    Shift=    0.000
 RMSDP=3.04D-09 MaxDP=3.51D-08 DE=-4.32D-12 OVMax= 1.08D-07

 SCF Done:  E(RB3LYP) =  -239.071347043     A.U. after    9 cycles
            NFock=  9  Conv=0.30D-08     -V/T= 2.0025
 KE= 2.384753936528D+02 PE=-7.235509553545D+02 EE= 1.683801177596D+02
 Leave Link  502 at Fri Sep  6 11:01:55 2024, MaxMem=  1073741824 cpu:               4.0 elap:               0.5
 (Enter /Users/asuyarger/Applications/G16/g16/l601.exe)
 Copying SCF densities to generalized density rwf, IOpCl= 0 IROHF=0.

 **********************************************************************

            Population analysis using the SCF density.

 **********************************************************************

 Orbital symmetries:
       Occupied  (B2) (A1) (A1) (A1) (B2) (A1) (A1) (B1) (B2) (A2)
                 (A1) (B2) (B1)
       Virtual   (A1) (B1) (B2) (A1) (B1) (A1) (A1) (B2) (B1) (A1)
                 (B2) (A2) (A1) (A1) (B2) (B1) (A1) (B2) (B1) (A2)
                 (A1) (A1) (B1) (B2) (B1) (A1) (B2) (B1) (A1) (A1)
                 (A2) (A1) (B2) (A1) (B1) (B2) (A2) (A1) (A1) (B1)
                 (B2) (B1) (A2) (A1) (B2) (B1) (B2) (A1) (A2) (B2)
                 (B2) (A1) (A1) (B1) (B1) (B2) (A1) (B1) (A1) (A2)
                 (A1) (B2) (A2) (A1) (B1) (A1) (B1) (A1) (B2) (A2)
                 (A1) (B1) (B2) (A1) (B2) (B1) (B2) (A2) (A1) (A1)
                 (B1) (A2) (B2) (A1) (B1) (B2) (B1) (A2) (A1) (A1)
                 (B2) (A1) (B2) (A1)
 The electronic state is 1-A1.
 Alpha  occ. eigenvalues --  -24.69996 -24.69995 -10.33460  -1.27128  -1.21478
 Alpha  occ. eigenvalues --   -0.72534  -0.56624  -0.56429  -0.56191  -0.44068
 Alpha  occ. eigenvalues --   -0.43146  -0.42075  -0.35873
 Alpha virt. eigenvalues --   -0.00591   0.02421   0.02930   0.03496   0.10212
 Alpha virt. eigenvalues --    0.11124   0.14478   0.15883   0.15994   0.16955
 Alpha virt. eigenvalues --    0.21173   0.23366   0.24979   0.27020   0.31865
 Alpha virt. eigenvalues --    0.34502   0.36520   0.37278   0.37921   0.38785
 Alpha virt. eigenvalues --    0.41241   0.46417   0.49576   0.54234   0.64033
 Alpha virt. eigenvalues --    0.65416   0.72214   0.75890   0.77651   0.92513
 Alpha virt. eigenvalues --    0.92807   0.96658   1.15551   1.17999   1.18538
 Alpha virt. eigenvalues --    1.30650   1.32091   1.33430   1.39838   1.42409
 Alpha virt. eigenvalues --    1.43799   1.74257   1.78822   1.79718   1.79798
 Alpha virt. eigenvalues --    1.93236   1.95428   1.97925   1.98724   2.08800
 Alpha virt. eigenvalues --    2.17528   2.30936   2.35240   2.36422   2.43103
 Alpha virt. eigenvalues --    2.56771   2.72169   2.73536   2.81852   2.83168
 Alpha virt. eigenvalues --    2.99394   3.30493   3.38419   3.40451   3.40594
 Alpha virt. eigenvalues --    3.41449   4.16002   4.16821   4.17265   6.27227
 Alpha virt. eigenvalues --    6.28011   6.34517   6.34960   6.51480   6.66202
 Alpha virt. eigenvalues --    8.25329   8.29126   8.29214   8.31447   8.53488
 Alpha virt. eigenvalues --    8.61710   9.02376   9.05965   9.13071   9.14804
 Alpha virt. eigenvalues --    9.17112   9.32030   9.43102   9.51262   9.66102
 Alpha virt. eigenvalues --    9.72455  23.98078  66.81390  66.83621
     Molecular Orbital Coefficients:
                           1         2         3         4         5
                        (B2)--O   (A1)--O   (A1)--O   (A1)--O   (B2)--O
     Eigenvalues --   -24.69996 -24.69995 -10.33460  -1.27128  -1.21478
   1 1   C  1S          0.00000   0.00005   0.56318  -0.04699   0.00000
   2        2S          0.00000  -0.00019   0.46304  -0.07157   0.00000
   3        2PX         0.00000   0.00000   0.00000   0.00000   0.00000
   4        2PY        -0.00016   0.00000   0.00000   0.00000   0.06676
   5        2PZ         0.00000   0.00011  -0.00167  -0.04127   0.00000
   6        3S          0.00000   0.00014   0.01980   0.18954   0.00000
   7        3PX         0.00000   0.00000   0.00000   0.00000   0.00000
   8        3PY         0.00196   0.00000   0.00000   0.00000   0.07886
   9        3PZ         0.00000  -0.00132   0.00251  -0.05395   0.00000
  10        4S          0.00000   0.01178  -0.00436  -0.13577   0.00000
  11        4PX         0.00000   0.00000   0.00000   0.00000   0.00000
  12        4PY         0.00753   0.00000   0.00000   0.00000  -0.05403
  13        4PZ         0.00000  -0.00487   0.00637   0.03268   0.00000
  14        5S          0.00000  -0.00261  -0.00617   0.01189   0.00000
  15        5PX         0.00000   0.00000   0.00000   0.00000   0.00000
  16        5PY        -0.00043   0.00000   0.00000   0.00000   0.00467
  17        5PZ         0.00000   0.00003  -0.00099  -0.00172   0.00000
  18        6D 0        0.00000   0.00004   0.00000   0.00039   0.00000
  19        6D+1        0.00000   0.00000   0.00000   0.00000   0.00000
  20        6D-1       -0.00019   0.00000   0.00000   0.00000  -0.01837
  21        6D+2        0.00000  -0.00011   0.00009  -0.01161   0.00000
  22        6D-2        0.00000   0.00000   0.00000   0.00000   0.00000
  23        7D 0        0.00000  -0.00014  -0.00017   0.00342   0.00000
  24        7D+1        0.00000   0.00000   0.00000   0.00000   0.00000
  25        7D-1       -0.00177   0.00000   0.00000   0.00000  -0.00331
  26        7D+2        0.00000  -0.00135   0.00222  -0.00172   0.00000
  27        7D-2        0.00000   0.00000   0.00000   0.00000   0.00000
  28 2   H  1S          0.00000   0.00017   0.00029   0.01122   0.00000
  29        2S          0.00000  -0.00046  -0.00656   0.03036   0.00000
  30        3S          0.00000  -0.00074  -0.00052   0.02829   0.00000
  31        4S          0.00000   0.00080   0.00170  -0.00660   0.00000
  32        5PX         0.00000   0.00001   0.00024   0.00026   0.00000
  33        5PY        -0.00002   0.00000   0.00000   0.00000   0.00069
  34        5PZ         0.00000   0.00000  -0.00016  -0.00054   0.00000
  35        6PX         0.00000   0.00001  -0.00223   0.00328   0.00000
  36        6PY         0.00003   0.00000   0.00000   0.00000  -0.00089
  37        6PZ         0.00000  -0.00001   0.00153  -0.00218   0.00000
  38        7PX         0.00000  -0.00010  -0.00133   0.00769   0.00000
  39        7PY        -0.00150   0.00000   0.00000   0.00000   0.01725
  40        7PZ         0.00000   0.00105   0.00064  -0.01693   0.00000
  41 3   H  1S          0.00000   0.00017   0.00029   0.01122   0.00000
  42        2S          0.00000  -0.00046  -0.00656   0.03036   0.00000
  43        3S          0.00000  -0.00074  -0.00052   0.02829   0.00000
  44        4S          0.00000   0.00080   0.00170  -0.00660   0.00000
  45        5PX         0.00000  -0.00001  -0.00024  -0.00026   0.00000
  46        5PY        -0.00002   0.00000   0.00000   0.00000   0.00069
  47        5PZ         0.00000   0.00000  -0.00016  -0.00054   0.00000
  48        6PX         0.00000  -0.00001   0.00223  -0.00328   0.00000
  49        6PY         0.00003   0.00000   0.00000   0.00000  -0.00089
  50        6PZ         0.00000  -0.00001   0.00153  -0.00218   0.00000
  51        7PX         0.00000   0.00010   0.00133  -0.00769   0.00000
  52        7PY        -0.00150   0.00000   0.00000   0.00000   0.01725
  53        7PZ         0.00000   0.00105   0.00064  -0.01693   0.00000
  54 4   F  1S          0.38727   0.38727  -0.00004  -0.08201  -0.08864
  55        2S          0.33366   0.33365  -0.00011  -0.13245  -0.14343
  56        2PX         0.00000   0.00000   0.00000   0.00000   0.00000
  57        2PY        -0.00051  -0.00049  -0.00011  -0.02955  -0.01968
  58        2PZ         0.00037   0.00037   0.00005   0.01772   0.01815
  59        3S          0.00907   0.00918   0.00096   0.38898   0.42513
  60        3PX         0.00000   0.00000   0.00000   0.00000   0.00000
  61        3PY         0.00003  -0.00007  -0.00010  -0.04764  -0.03370
  62        3PZ         0.00001  -0.00003   0.00022   0.02922   0.03001
  63        4S         -0.00829  -0.00835  -0.00117   0.32755   0.35048
  64        4PX         0.00000   0.00000   0.00000   0.00000   0.00000
  65        4PY         0.00183   0.00235   0.00083  -0.04545  -0.02903
  66        4PZ        -0.00163  -0.00125  -0.00117   0.02741   0.02693
  67        5S          0.00036  -0.00012   0.00541   0.01296  -0.00479
  68        5PX         0.00000   0.00000   0.00000   0.00000   0.00000
  69        5PY        -0.00043   0.00052  -0.00205  -0.00404   0.00939
  70        5PZ        -0.00034   0.00013   0.00155  -0.00296   0.00087
  71        6D 0        0.00001  -0.00001   0.00001  -0.00016   0.00021
  72        6D+1        0.00000   0.00000   0.00000   0.00000   0.00000
  73        6D-1       -0.00015  -0.00013  -0.00024  -0.00144  -0.00147
  74        6D+2       -0.00009  -0.00012  -0.00013  -0.00132  -0.00078
  75        6D-2        0.00000   0.00000   0.00000   0.00000   0.00000
  76        7D 0       -0.00005   0.00003  -0.00004  -0.00038   0.00071
  77        7D+1        0.00000   0.00000   0.00000   0.00000   0.00000
  78        7D-1        0.00050   0.00037   0.00097  -0.00978  -0.00904
  79        7D+2        0.00027   0.00037   0.00048  -0.00747  -0.00611
  80        7D-2        0.00000   0.00000   0.00000   0.00000   0.00000
  81 5   F  1S         -0.38727   0.38727  -0.00004  -0.08201   0.08864
  82        2S         -0.33366   0.33365  -0.00011  -0.13245   0.14343
  83        2PX         0.00000   0.00000   0.00000   0.00000   0.00000
  84        2PY        -0.00051   0.00049   0.00011   0.02955  -0.01968
  85        2PZ        -0.00037   0.00037   0.00005   0.01772  -0.01815
  86        3S         -0.00907   0.00918   0.00096   0.38898  -0.42513
  87        3PX         0.00000   0.00000   0.00000   0.00000   0.00000
  88        3PY         0.00003   0.00007   0.00010   0.04764  -0.03370
  89        3PZ        -0.00001  -0.00003   0.00022   0.02922  -0.03001
  90        4S          0.00829  -0.00835  -0.00117   0.32755  -0.35048
  91        4PX         0.00000   0.00000   0.00000   0.00000   0.00000
  92        4PY         0.00183  -0.00235  -0.00083   0.04545  -0.02903
  93        4PZ         0.00163  -0.00125  -0.00117   0.02741  -0.02693
  94        5S         -0.00036  -0.00012   0.00541   0.01296   0.00479
  95        5PX         0.00000   0.00000   0.00000   0.00000   0.00000
  96        5PY        -0.00043  -0.00052   0.00205   0.00404   0.00939
  97        5PZ         0.00034   0.00013   0.00155  -0.00296  -0.00087
  98        6D 0       -0.00001  -0.00001   0.00001  -0.00016  -0.00021
  99        6D+1        0.00000   0.00000   0.00000   0.00000   0.00000
 100        6D-1       -0.00015   0.00013   0.00024   0.00144  -0.00147
 101        6D+2        0.00009  -0.00012  -0.00013  -0.00132   0.00078
 102        6D-2        0.00000   0.00000   0.00000   0.00000   0.00000
 103        7D 0        0.00005   0.00003  -0.00004  -0.00038  -0.00071
 104        7D+1        0.00000   0.00000   0.00000   0.00000   0.00000
 105        7D-1        0.00050  -0.00037  -0.00097   0.00978  -0.00904
 106        7D+2       -0.00027   0.00037   0.00048  -0.00747   0.00611
 107        7D-2        0.00000   0.00000   0.00000   0.00000   0.00000
                           6         7         8         9        10
                        (A1)--O   (A1)--O   (B1)--O   (B2)--O   (A2)--O
     Eigenvalues --    -0.72534  -0.56624  -0.56429  -0.56191  -0.44068
   1 1   C  1S         -0.09728  -0.00654   0.00000   0.00000   0.00000
   2        2S         -0.15296  -0.00960   0.00000   0.00000   0.00000
   3        2PX         0.00000   0.00000   0.17853   0.00000   0.00000
   4        2PY         0.00000   0.00000   0.00000   0.15374   0.00000
   5        2PZ         0.03532   0.16513   0.00000   0.00000   0.00000
   6        3S          0.43631   0.01416   0.00000   0.00000   0.00000
   7        3PX         0.00000   0.00000   0.25976   0.00000   0.00000
   8        3PY         0.00000   0.00000   0.00000   0.22282   0.00000
   9        3PZ         0.03628   0.24240   0.00000   0.00000   0.00000
  10        4S          0.13795   0.13432   0.00000   0.00000   0.00000
  11        4PX         0.00000   0.00000   0.12765   0.00000   0.00000
  12        4PY         0.00000   0.00000   0.00000   0.05243   0.00000
  13        4PZ         0.00882   0.08686   0.00000   0.00000   0.00000
  14        5S         -0.06561   0.05470   0.00000   0.00000   0.00000
  15        5PX         0.00000   0.00000   0.04525   0.00000   0.00000
  16        5PY         0.00000   0.00000   0.00000  -0.00505   0.00000
  17        5PZ        -0.00415   0.00685   0.00000   0.00000   0.00000
  18        6D 0       -0.00119  -0.00946   0.00000   0.00000   0.00000
  19        6D+1        0.00000   0.00000   0.00279   0.00000   0.00000
  20        6D-1        0.00000   0.00000   0.00000  -0.01993   0.00000
  21        6D+2        0.00233   0.01070   0.00000   0.00000   0.00000
  22        6D-2        0.00000   0.00000   0.00000   0.00000   0.01643
  23        7D 0       -0.00065  -0.01957   0.00000   0.00000   0.00000
  24        7D+1        0.00000   0.00000  -0.00399   0.00000   0.00000
  25        7D-1        0.00000   0.00000   0.00000  -0.01247   0.00000
  26        7D+2       -0.00320   0.00133   0.00000   0.00000   0.00000
  27        7D-2        0.00000   0.00000   0.00000   0.00000   0.03888
  28 2   H  1S          0.08991   0.07443  -0.09667   0.00000   0.00000
  29        2S          0.11907   0.08061  -0.11920   0.00000   0.00000
  30        3S          0.05625  -0.00211  -0.03394   0.00000   0.00000
  31        4S          0.01531  -0.00987   0.04069   0.00000   0.00000
  32        5PX         0.00266   0.00261  -0.00245   0.00000   0.00000
  33        5PY         0.00000   0.00000   0.00000   0.00137  -0.00120
  34        5PZ        -0.00172  -0.00094   0.00298   0.00000   0.00000
  35        6PX         0.01125   0.00592  -0.00155   0.00000   0.00000
  36        6PY         0.00000   0.00000   0.00000   0.00264   0.00293
  37        6PZ        -0.00611   0.00231   0.00518   0.00000   0.00000
  38        7PX         0.01520   0.00069  -0.00614   0.00000   0.00000
  39        7PY         0.00000   0.00000   0.00000   0.01393  -0.00478
  40        7PZ        -0.01122   0.00992   0.00696   0.00000   0.00000
  41 3   H  1S          0.08991   0.07443   0.09667   0.00000   0.00000
  42        2S          0.11907   0.08061   0.11920   0.00000   0.00000
  43        3S          0.05625  -0.00211   0.03394   0.00000   0.00000
  44        4S          0.01531  -0.00987  -0.04069   0.00000   0.00000
  45        5PX        -0.00266  -0.00261  -0.00245   0.00000   0.00000
  46        5PY         0.00000   0.00000   0.00000   0.00137   0.00120
  47        5PZ        -0.00172  -0.00094  -0.00298   0.00000   0.00000
  48        6PX        -0.01125  -0.00592  -0.00155   0.00000   0.00000
  49        6PY         0.00000   0.00000   0.00000   0.00264  -0.00293
  50        6PZ        -0.00611   0.00231  -0.00518   0.00000   0.00000
  51        7PX        -0.01520  -0.00069  -0.00614   0.00000   0.00000
  52        7PY         0.00000   0.00000   0.00000   0.01393   0.00478
  53        7PZ        -0.01122   0.00992  -0.00696   0.00000   0.00000
  54 4   F  1S          0.03628  -0.01354   0.00000   0.02172   0.00000
  55        2S          0.05941  -0.02221   0.00000   0.03560   0.00000
  56        2PX         0.00000   0.00000   0.13806   0.00000   0.22743
  57        2PY        -0.07635   0.16104   0.00000  -0.12296   0.00000
  58        2PZ         0.06719   0.02408   0.00000   0.14837   0.00000
  59        3S         -0.18604   0.07049   0.00000  -0.11248   0.00000
  60        3PX         0.00000   0.00000   0.19851   0.00000   0.32688
  61        3PY        -0.10967   0.23316   0.00000  -0.17896   0.00000
  62        3PZ         0.09647   0.03439   0.00000   0.21550   0.00000
  63        4S         -0.17822   0.06619   0.00000  -0.12129   0.00000
  64        4PX         0.00000   0.00000   0.16518   0.00000   0.28030
  65        4PY        -0.07705   0.18612   0.00000  -0.13152   0.00000
  66        4PZ         0.06934   0.02896   0.00000   0.16597   0.00000
  67        5S         -0.01814   0.00212   0.00000  -0.03751   0.00000
  68        5PX         0.00000   0.00000  -0.00438   0.00000   0.04495
  69        5PY         0.00158   0.01579   0.00000  -0.00662   0.00000
  70        5PZ        -0.00403   0.00187   0.00000   0.01078   0.00000
  71        6D 0        0.00023   0.00172   0.00000   0.00075   0.00000
  72        6D+1        0.00000   0.00000   0.00142   0.00000   0.00118
  73        6D-1       -0.00219   0.00123   0.00000  -0.00352   0.00000
  74        6D+2       -0.00136   0.00255   0.00000  -0.00167   0.00000
  75        6D-2        0.00000   0.00000  -0.00199   0.00000  -0.00136
  76        7D 0        0.00151   0.00943   0.00000   0.00530   0.00000
  77        7D+1        0.00000   0.00000   0.00932   0.00000   0.00838
  78        7D-1       -0.00848   0.00372   0.00000  -0.01327   0.00000
  79        7D+2       -0.00386   0.01105   0.00000  -0.00587   0.00000
  80        7D-2        0.00000   0.00000  -0.01299   0.00000  -0.01076
  81 5   F  1S          0.03628  -0.01354   0.00000  -0.02172   0.00000
  82        2S          0.05941  -0.02221   0.00000  -0.03560   0.00000
  83        2PX         0.00000   0.00000   0.13806   0.00000  -0.22743
  84        2PY         0.07635  -0.16104   0.00000  -0.12296   0.00000
  85        2PZ         0.06719   0.02408   0.00000  -0.14837   0.00000
  86        3S         -0.18604   0.07049   0.00000   0.11248   0.00000
  87        3PX         0.00000   0.00000   0.19851   0.00000  -0.32688
  88        3PY         0.10967  -0.23316   0.00000  -0.17896   0.00000
  89        3PZ         0.09647   0.03439   0.00000  -0.21550   0.00000
  90        4S         -0.17822   0.06619   0.00000   0.12129   0.00000
  91        4PX         0.00000   0.00000   0.16518   0.00000  -0.28030
  92        4PY         0.07705  -0.18612   0.00000  -0.13152   0.00000
  93        4PZ         0.06934   0.02896   0.00000  -0.16597   0.00000
  94        5S         -0.01814   0.00212   0.00000   0.03751   0.00000
  95        5PX         0.00000   0.00000  -0.00438   0.00000  -0.04495
  96        5PY        -0.00158  -0.01579   0.00000  -0.00662   0.00000
  97        5PZ        -0.00403   0.00187   0.00000  -0.01078   0.00000
  98        6D 0        0.00023   0.00172   0.00000  -0.00075   0.00000
  99        6D+1        0.00000   0.00000   0.00142   0.00000  -0.00118
 100        6D-1        0.00219  -0.00123   0.00000  -0.00352   0.00000
 101        6D+2       -0.00136   0.00255   0.00000   0.00167   0.00000
 102        6D-2        0.00000   0.00000   0.00199   0.00000  -0.00136
 103        7D 0        0.00151   0.00943   0.00000  -0.00530   0.00000
 104        7D+1        0.00000   0.00000   0.00932   0.00000  -0.00838
 105        7D-1        0.00848  -0.00372   0.00000  -0.01327   0.00000
 106        7D+2       -0.00386   0.01105   0.00000   0.00587   0.00000
 107        7D-2        0.00000   0.00000   0.01299   0.00000  -0.01076
                          11        12        13        14        15
                        (A1)--O   (B2)--O   (B1)--O   (A1)--V   (B1)--V
     Eigenvalues --    -0.43146  -0.42075  -0.35873  -0.00591   0.02421
   1 1   C  1S          0.01564   0.00000   0.00000  -0.02647   0.00000
   2        2S          0.02421   0.00000   0.00000  -0.04347   0.00000
   3        2PX         0.00000   0.00000  -0.14751   0.00000   0.09388
   4        2PY         0.00000  -0.01199   0.00000   0.00000   0.00000
   5        2PZ        -0.08520   0.00000   0.00000   0.07069   0.00000
   6        3S         -0.06186   0.00000   0.00000   0.14215   0.00000
   7        3PX         0.00000   0.00000  -0.19233   0.00000   0.12667
   8        3PY         0.00000  -0.00737   0.00000   0.00000   0.00000
   9        3PZ        -0.10688   0.00000   0.00000   0.09900   0.00000
  10        4S         -0.17250   0.00000   0.00000   0.31077   0.00000
  11        4PX         0.00000   0.00000  -0.11798   0.00000  -0.14192
  12        4PY         0.00000   0.00697   0.00000   0.00000   0.00000
  13        4PZ        -0.04995   0.00000   0.00000   0.02066   0.00000
  14        5S         -0.01883   0.00000   0.00000   3.01187   0.00000
  15        5PX         0.00000   0.00000   0.05049   0.00000   0.99292
  16        5PY         0.00000   0.02283   0.00000   0.00000   0.00000
  17        5PZ         0.00946   0.00000   0.00000   0.49174   0.00000
  18        6D 0       -0.01230   0.00000   0.00000  -0.00005   0.00000
  19        6D+1        0.00000   0.00000  -0.02197   0.00000   0.00042
  20        6D-1        0.00000   0.01619   0.00000   0.00000   0.00000
  21        6D+2       -0.02208   0.00000   0.00000   0.00017   0.00000
  22        6D-2        0.00000   0.00000   0.00000   0.00000   0.00000
  23        7D 0       -0.03214   0.00000   0.00000   0.00558   0.00000
  24        7D+1        0.00000   0.00000  -0.02839   0.00000  -0.05046
  25        7D-1        0.00000   0.02576   0.00000   0.00000   0.00000
  26        7D+2       -0.02944   0.00000   0.00000  -0.03028   0.00000
  27        7D-2        0.00000   0.00000   0.00000   0.00000   0.00000
  28 2   H  1S         -0.07055   0.00000   0.12551   0.00206  -0.00392
  29        2S         -0.08674   0.00000   0.19484   0.02399  -0.06184
  30        3S         -0.01990   0.00000   0.12306  -0.21124  -0.34405
  31        4S         -0.00576   0.00000   0.06304  -1.82098   3.20673
  32        5PX        -0.00187   0.00000   0.00222   0.00198  -0.00170
  33        5PY         0.00000   0.00050   0.00000   0.00000   0.00000
  34        5PZ         0.00023   0.00000  -0.00168  -0.00092   0.00166
  35        6PX        -0.00621   0.00000   0.00739   0.01300  -0.00866
  36        6PY         0.00000   0.00002   0.00000   0.00000   0.00000
  37        6PZ         0.00330   0.00000  -0.01090  -0.00454   0.00733
  38        7PX         0.00514   0.00000   0.00150   0.04487  -0.13513
  39        7PY         0.00000   0.00108   0.00000   0.00000   0.00000
  40        7PZ        -0.00857   0.00000   0.00126  -0.03578   0.10074
  41 3   H  1S         -0.07055   0.00000  -0.12551   0.00206   0.00392
  42        2S         -0.08674   0.00000  -0.19484   0.02399   0.06184
  43        3S         -0.01990   0.00000  -0.12306  -0.21124   0.34405
  44        4S         -0.00576   0.00000  -0.06304  -1.82098  -3.20673
  45        5PX         0.00187   0.00000   0.00222  -0.00198  -0.00170
  46        5PY         0.00000   0.00050   0.00000   0.00000   0.00000
  47        5PZ         0.00023   0.00000   0.00168  -0.00092  -0.00166
  48        6PX         0.00621   0.00000   0.00739  -0.01300  -0.00866
  49        6PY         0.00000   0.00002   0.00000   0.00000   0.00000
  50        6PZ         0.00330   0.00000   0.01090  -0.00454  -0.00733
  51        7PX        -0.00514   0.00000   0.00150  -0.04487  -0.13513
  52        7PY         0.00000   0.00108   0.00000   0.00000   0.00000
  53        7PZ        -0.00857   0.00000  -0.00126  -0.03578  -0.10074
  54 4   F  1S         -0.00097   0.00164   0.00000  -0.00581   0.00000
  55        2S         -0.00168   0.00277   0.00000  -0.00966   0.00000
  56        2PX         0.00000   0.00000   0.17712   0.00000  -0.00111
  57        2PY         0.03025   0.18318   0.00000   0.00847   0.00000
  58        2PZ         0.20594   0.14372   0.00000  -0.01532   0.00000
  59        3S          0.00557  -0.00920   0.00000   0.03266   0.00000
  60        3PX         0.00000   0.00000   0.25340   0.00000  -0.00309
  61        3PY         0.04081   0.26462   0.00000   0.01035   0.00000
  62        3PZ         0.29782   0.20444   0.00000  -0.02200   0.00000
  63        4S          0.01348  -0.00994   0.00000   0.05971   0.00000
  64        4PX         0.00000   0.00000   0.23202   0.00000   0.00532
  65        4PY         0.03467   0.23130   0.00000   0.02890   0.00000
  66        4PZ         0.25536   0.18638   0.00000  -0.02769   0.00000
  67        5S          0.01120   0.01686   0.00000  -0.21528   0.00000
  68        5PX         0.00000   0.00000   0.05041   0.00000  -0.06600
  69        5PY         0.01006   0.01694   0.00000   0.03362   0.00000
  70        5PZ         0.04334   0.02913   0.00000  -0.07196   0.00000
  71        6D 0        0.00110   0.00097   0.00000   0.00046   0.00000
  72        6D+1        0.00000   0.00000  -0.00007   0.00000   0.00053
  73        6D-1       -0.00153   0.00041   0.00000  -0.00048   0.00000
  74        6D+2       -0.00010   0.00092   0.00000  -0.00013   0.00000
  75        6D-2        0.00000   0.00000  -0.00019   0.00000  -0.00086
  76        7D 0        0.00713   0.01277   0.00000   0.00293   0.00000
  77        7D+1        0.00000   0.00000   0.00091   0.00000   0.00208
  78        7D-1       -0.01016   0.00135   0.00000  -0.00186   0.00000
  79        7D+2       -0.00067   0.00961   0.00000   0.00035   0.00000
  80        7D-2        0.00000   0.00000  -0.00438   0.00000  -0.00481
  81 5   F  1S         -0.00097  -0.00164   0.00000  -0.00581   0.00000
  82        2S         -0.00168  -0.00277   0.00000  -0.00966   0.00000
  83        2PX         0.00000   0.00000   0.17712   0.00000  -0.00111
  84        2PY        -0.03025   0.18318   0.00000  -0.00847   0.00000
  85        2PZ         0.20594  -0.14372   0.00000  -0.01532   0.00000
  86        3S          0.00557   0.00920   0.00000   0.03266   0.00000
  87        3PX         0.00000   0.00000   0.25340   0.00000  -0.00309
  88        3PY        -0.04081   0.26462   0.00000  -0.01035   0.00000
  89        3PZ         0.29782  -0.20444   0.00000  -0.02200   0.00000
  90        4S          0.01348   0.00994   0.00000   0.05971   0.00000
  91        4PX         0.00000   0.00000   0.23202   0.00000   0.00532
  92        4PY        -0.03467   0.23130   0.00000  -0.02890   0.00000
  93        4PZ         0.25536  -0.18638   0.00000  -0.02769   0.00000
  94        5S          0.01120  -0.01686   0.00000  -0.21528   0.00000
  95        5PX         0.00000   0.00000   0.05041   0.00000  -0.06600
  96        5PY        -0.01006   0.01694   0.00000  -0.03362   0.00000
  97        5PZ         0.04334  -0.02913   0.00000  -0.07196   0.00000
  98        6D 0        0.00110  -0.00097   0.00000   0.00046   0.00000
  99        6D+1        0.00000   0.00000  -0.00007   0.00000   0.00053
 100        6D-1        0.00153   0.00041   0.00000   0.00048   0.00000
 101        6D+2       -0.00010  -0.00092   0.00000  -0.00013   0.00000
 102        6D-2        0.00000   0.00000   0.00019   0.00000   0.00086
 103        7D 0        0.00713  -0.01277   0.00000   0.00293   0.00000
 104        7D+1        0.00000   0.00000   0.00091   0.00000   0.00208
 105        7D-1        0.01016   0.00135   0.00000   0.00186   0.00000
 106        7D+2       -0.00067  -0.00961   0.00000   0.00035   0.00000
 107        7D-2        0.00000   0.00000   0.00438   0.00000   0.00481
                          16        17        18        19        20
                        (B2)--V   (A1)--V   (B1)--V   (A1)--V   (A1)--V
     Eigenvalues --     0.02930   0.03496   0.10212   0.11124   0.14478
   1 1   C  1S          0.00000   0.02269   0.00000   0.02544  -0.02160
   2        2S          0.00000   0.03676   0.00000   0.04511  -0.03368
   3        2PX         0.00000   0.00000  -0.01101   0.00000   0.00000
   4        2PY         0.08595   0.00000   0.00000   0.00000   0.00000
   5        2PZ         0.00000   0.04357   0.00000  -0.07257   0.11812
   6        3S          0.00000  -0.09541   0.00000  -0.25065  -0.01045
   7        3PX         0.00000   0.00000  -0.02445   0.00000   0.00000
   8        3PY         0.13220   0.00000   0.00000   0.00000   0.00000
   9        3PZ         0.00000   0.06325   0.00000  -0.09446   0.23647
  10        4S          0.00000  -0.34925   0.00000   2.13496   4.39232
  11        4PX         0.00000   0.00000   0.79986   0.00000   0.00000
  12        4PY         0.52295   0.00000   0.00000   0.00000   0.00000
  13        4PZ         0.00000   0.52059   0.00000  -0.08935   1.69860
  14        5S          0.00000  -0.37575   0.00000  13.75272   4.98241
  15        5PX         0.00000   0.00000   4.88649   0.00000   0.00000
  16        5PY         1.25060   0.00000   0.00000   0.00000   0.00000
  17        5PZ         0.00000   1.37255   0.00000   2.41453   0.96189
  18        6D 0        0.00000   0.00535   0.00000   0.00141   0.00878
  19        6D+1        0.00000   0.00000  -0.00682   0.00000   0.00000
  20        6D-1        0.01387   0.00000   0.00000   0.00000   0.00000
  21        6D+2        0.00000  -0.01178   0.00000  -0.00071  -0.02295
  22        6D-2        0.00000   0.00000   0.00000   0.00000   0.00000
  23        7D 0        0.00000   0.03386   0.00000   0.01819   0.00354
  24        7D+1        0.00000   0.00000   0.03532   0.00000   0.00000
  25        7D-1        0.01773   0.00000   0.00000   0.00000   0.00000
  26        7D+2        0.00000   0.00523   0.00000  -0.01045   0.09878
  27        7D-2        0.00000   0.00000   0.00000   0.00000   0.00000
  28 2   H  1S          0.00000  -0.00300   0.01323  -0.00339  -0.03735
  29        2S          0.00000  -0.02401   0.07935  -0.04834  -0.51243
  30        3S          0.00000  -0.35927   1.78783  -2.02415  -3.72256
  31        4S          0.00000  -0.13514   5.54893  -5.01183  -0.79294
  32        5PX         0.00000   0.00019   0.00069  -0.00266   0.00572
  33        5PY         0.00141   0.00000   0.00000   0.00000   0.00000
  34        5PZ         0.00000   0.00161  -0.00123   0.00126   0.00059
  35        6PX         0.00000   0.00546   0.00228  -0.00344   0.00112
  36        6PY         0.01803   0.00000   0.00000   0.00000   0.00000
  37        6PZ         0.00000   0.01046   0.01402   0.00526   0.01297
  38        7PX         0.00000  -0.04958   0.17676  -0.25451  -0.37876
  39        7PY         0.00184   0.00000   0.00000   0.00000   0.00000
  40        7PZ         0.00000   0.03525  -0.17205   0.16867   0.38689
  41 3   H  1S          0.00000  -0.00300  -0.01323  -0.00339  -0.03735
  42        2S          0.00000  -0.02401  -0.07935  -0.04834  -0.51243
  43        3S          0.00000  -0.35927  -1.78783  -2.02415  -3.72256
  44        4S          0.00000  -0.13514  -5.54893  -5.01183  -0.79294
  45        5PX         0.00000  -0.00019   0.00069   0.00266  -0.00572
  46        5PY         0.00141   0.00000   0.00000   0.00000   0.00000
  47        5PZ         0.00000   0.00161   0.00123   0.00126   0.00059
  48        6PX         0.00000  -0.00546   0.00228   0.00344  -0.00112
  49        6PY         0.01803   0.00000   0.00000   0.00000   0.00000
  50        6PZ         0.00000   0.01046  -0.01402   0.00526   0.01297
  51        7PX         0.00000   0.04958   0.17676   0.25451   0.37876
  52        7PY         0.00184   0.00000   0.00000   0.00000   0.00000
  53        7PZ         0.00000   0.03525   0.17205   0.16867   0.38689
  54 4   F  1S          0.01809  -0.01895   0.00000   0.00890   0.00102
  55        2S          0.03048  -0.03186   0.00000   0.01514   0.00166
  56        2PX         0.00000   0.00000  -0.04521   0.00000   0.00000
  57        2PY        -0.00461  -0.04162   0.00000  -0.01196  -0.04945
  58        2PZ        -0.05781  -0.00915   0.00000   0.00881   0.00733
  59        3S         -0.10879   0.11218   0.00000  -0.05701  -0.00690
  60        3PX         0.00000   0.00000  -0.07458   0.00000   0.00000
  61        3PY        -0.00921  -0.06246   0.00000  -0.02243  -0.06935
  62        3PZ        -0.08361  -0.01815   0.00000   0.00971   0.01639
  63        4S         -0.15352   0.17957   0.00000  -0.07105   0.02519
  64        4PX         0.00000   0.00000  -0.03256   0.00000   0.00000
  65        4PY         0.03466  -0.09394   0.00000   0.05413  -0.11537
  66        4PZ        -0.11398   0.03975   0.00000  -0.00194  -0.00329
  67        5S         -0.70957   0.69737   0.00000  -1.54759  -0.29801
  68        5PX         0.00000   0.00000  -0.39106   0.00000   0.00000
  69        5PY         0.03096  -0.23731   0.00000   0.25662   0.01520
  70        5PZ        -0.17521  -0.07933   0.00000  -0.29140  -0.17444
  71        6D 0        0.00063   0.00029   0.00000  -0.00059   0.00134
  72        6D+1        0.00000   0.00000  -0.00051   0.00000   0.00000
  73        6D-1       -0.00075   0.00083   0.00000   0.00008  -0.00057
  74        6D+2       -0.00015   0.00029   0.00000  -0.00090   0.00022
  75        6D-2        0.00000   0.00000  -0.00007   0.00000   0.00000
  76        7D 0        0.00163   0.00324   0.00000  -0.00153   0.00966
  77        7D+1        0.00000   0.00000  -0.00518   0.00000   0.00000
  78        7D-1        0.00203  -0.00185   0.00000   0.00904  -0.00010
  79        7D+2        0.00171  -0.00324   0.00000   0.00391  -0.00717
  80        7D-2        0.00000   0.00000   0.00044   0.00000   0.00000
  81 5   F  1S         -0.01809  -0.01895   0.00000   0.00890   0.00102
  82        2S         -0.03048  -0.03186   0.00000   0.01514   0.00166
  83        2PX         0.00000   0.00000  -0.04521   0.00000   0.00000
  84        2PY        -0.00461   0.04162   0.00000   0.01196   0.04945
  85        2PZ         0.05781  -0.00915   0.00000   0.00881   0.00733
  86        3S          0.10879   0.11218   0.00000  -0.05701  -0.00690
  87        3PX         0.00000   0.00000  -0.07458   0.00000   0.00000
  88        3PY        -0.00921   0.06246   0.00000   0.02243   0.06935
  89        3PZ         0.08361  -0.01815   0.00000   0.00971   0.01639
  90        4S          0.15352   0.17957   0.00000  -0.07105   0.02519
  91        4PX         0.00000   0.00000  -0.03256   0.00000   0.00000
  92        4PY         0.03466   0.09394   0.00000  -0.05413   0.11537
  93        4PZ         0.11398   0.03975   0.00000  -0.00194  -0.00329
  94        5S          0.70957   0.69737   0.00000  -1.54759  -0.29801
  95        5PX         0.00000   0.00000  -0.39106   0.00000   0.00000
  96        5PY         0.03096   0.23731   0.00000  -0.25662  -0.01520
  97        5PZ         0.17521  -0.07933   0.00000  -0.29140  -0.17444
  98        6D 0       -0.00063   0.00029   0.00000  -0.00059   0.00134
  99        6D+1        0.00000   0.00000  -0.00051   0.00000   0.00000
 100        6D-1       -0.00075  -0.00083   0.00000  -0.00008   0.00057
 101        6D+2        0.00015   0.00029   0.00000  -0.00090   0.00022
 102        6D-2        0.00000   0.00000   0.00007   0.00000   0.00000
 103        7D 0       -0.00163   0.00324   0.00000  -0.00153   0.00966
 104        7D+1        0.00000   0.00000  -0.00518   0.00000   0.00000
 105        7D-1        0.00203   0.00185   0.00000  -0.00904   0.00010
 106        7D+2       -0.00171  -0.00324   0.00000   0.00391  -0.00717
 107        7D-2        0.00000   0.00000  -0.00044   0.00000   0.00000
                          21        22        23        24        25
                        (B2)--V   (B1)--V   (A1)--V   (B2)--V   (A2)--V
     Eigenvalues --     0.15883   0.15994   0.16955   0.21173   0.23366
   1 1   C  1S          0.00000   0.00000  -0.06981   0.00000   0.00000
   2        2S          0.00000   0.00000  -0.11413   0.00000   0.00000
   3        2PX         0.00000   0.18345   0.00000   0.00000   0.00000
   4        2PY        -0.23140   0.00000   0.00000   0.08164   0.00000
   5        2PZ         0.00000   0.00000  -0.15179   0.00000   0.00000
   6        3S          0.00000   0.00000   0.34278   0.00000   0.00000
   7        3PX         0.00000   0.34158   0.00000   0.00000   0.00000
   8        3PY        -0.38173   0.00000   0.00000   0.01684   0.00000
   9        3PZ         0.00000   0.00000  -0.23428   0.00000   0.00000
  10        4S          0.00000   0.00000   2.68185   0.00000   0.00000
  11        4PX         0.00000   2.24610   0.00000   0.00000   0.00000
  12        4PY        -0.33295   0.00000   0.00000   1.35552   0.00000
  13        4PZ         0.00000   0.00000   0.13493   0.00000   0.00000
  14        5S          0.00000   0.00000   0.82951   0.00000   0.00000
  15        5PX         0.00000  -0.79282   0.00000   0.00000   0.00000
  16        5PY         1.11123   0.00000   0.00000  -0.37586   0.00000
  17        5PZ         0.00000   0.00000   1.19444   0.00000   0.00000
  18        6D 0        0.00000   0.00000  -0.00889   0.00000   0.00000
  19        6D+1        0.00000  -0.01887   0.00000   0.00000   0.00000
  20        6D-1       -0.03070   0.00000   0.00000   0.00270   0.00000
  21        6D+2        0.00000   0.00000   0.02075   0.00000   0.00000
  22        6D-2        0.00000   0.00000   0.00000   0.00000   0.01105
  23        7D 0        0.00000   0.00000   0.03307   0.00000   0.00000
  24        7D+1        0.00000   0.11960   0.00000   0.00000   0.00000
  25        7D-1       -0.09632   0.00000   0.00000  -0.02952   0.00000
  26        7D+2        0.00000   0.00000   0.09618   0.00000   0.00000
  27        7D-2        0.00000   0.00000   0.00000   0.00000  -0.02197
  28 2   H  1S          0.00000   0.03255  -0.00542   0.00000   0.00000
  29        2S          0.00000   0.40975  -0.10211   0.00000   0.00000
  30        3S          0.00000   3.40532  -1.58027   0.00000   0.00000
  31        4S          0.00000  -3.19686  -0.21014   0.00000   0.00000
  32        5PX         0.00000  -0.00254  -0.00158   0.00000   0.00000
  33        5PY        -0.00611   0.00000   0.00000  -0.00152  -0.00323
  34        5PZ         0.00000   0.00376  -0.00374   0.00000   0.00000
  35        6PX         0.00000  -0.00153   0.00319   0.00000   0.00000
  36        6PY        -0.00711   0.00000   0.00000   0.00417  -0.00341
  37        6PZ         0.00000   0.00961  -0.01020   0.00000   0.00000
  38        7PX         0.00000   0.37674  -0.31385   0.00000   0.00000
  39        7PY        -0.25369   0.00000   0.00000  -0.13115  -0.17951
  40        7PZ         0.00000  -0.28060  -0.03853   0.00000   0.00000
  41 3   H  1S          0.00000  -0.03255  -0.00542   0.00000   0.00000
  42        2S          0.00000  -0.40975  -0.10211   0.00000   0.00000
  43        3S          0.00000  -3.40532  -1.58027   0.00000   0.00000
  44        4S          0.00000   3.19686  -0.21014   0.00000   0.00000
  45        5PX         0.00000  -0.00254   0.00158   0.00000   0.00000
  46        5PY        -0.00611   0.00000   0.00000  -0.00152   0.00323
  47        5PZ         0.00000  -0.00376  -0.00374   0.00000   0.00000
  48        6PX         0.00000  -0.00153  -0.00319   0.00000   0.00000
  49        6PY        -0.00711   0.00000   0.00000   0.00417   0.00341
  50        6PZ         0.00000  -0.00961  -0.01020   0.00000   0.00000
  51        7PX         0.00000   0.37674   0.31385   0.00000   0.00000
  52        7PY        -0.25369   0.00000   0.00000  -0.13115   0.17951
  53        7PZ         0.00000   0.28060  -0.03853   0.00000   0.00000
  54 4   F  1S         -0.01976   0.00000   0.02478   0.01404   0.00000
  55        2S         -0.03262   0.00000   0.04089   0.02333   0.00000
  56        2PX         0.00000  -0.04018   0.00000   0.00000  -0.08799
  57        2PY        -0.06799   0.00000   0.09575  -0.01601   0.00000
  58        2PZ         0.10319   0.00000  -0.06339   0.04091   0.00000
  59        3S          0.09896   0.00000  -0.12400  -0.07673   0.00000
  60        3PX         0.00000  -0.04590   0.00000   0.00000  -0.08934
  61        3PY        -0.10497   0.00000   0.14763  -0.00405   0.00000
  62        3PZ         0.14658   0.00000  -0.09209   0.03618   0.00000
  63        4S          0.32033   0.00000  -0.43346  -0.24735   0.00000
  64        4PX         0.00000  -0.12900   0.00000   0.00000  -0.33474
  65        4PY        -0.10406   0.00000   0.16358  -0.09664   0.00000
  66        4PZ         0.19604   0.00000  -0.13013   0.16156   0.00000
  67        5S         -0.56457   0.00000   0.41822  -1.14529   0.00000
  68        5PX         0.00000  -0.05999   0.00000   0.00000   1.01382
  69        5PY        -0.06683   0.00000   0.25902   1.23202   0.00000
  70        5PZ        -0.05230   0.00000  -0.03174  -1.16563   0.00000
  71        6D 0       -0.00150   0.00000  -0.00179   0.00061   0.00000
  72        6D+1        0.00000   0.00081   0.00000   0.00000  -0.00028
  73        6D-1        0.00198   0.00000  -0.00165  -0.00144   0.00000
  74        6D+2        0.00009   0.00000  -0.00260  -0.00075   0.00000
  75        6D-2        0.00000  -0.00198   0.00000   0.00000   0.00130
  76        7D 0       -0.01139   0.00000  -0.01013   0.00298   0.00000
  77        7D+1        0.00000   0.00084   0.00000   0.00000   0.00225
  78        7D-1        0.00715   0.00000  -0.00775  -0.01825   0.00000
  79        7D+2       -0.00208   0.00000  -0.00909  -0.00726   0.00000
  80        7D-2        0.00000  -0.01327   0.00000   0.00000   0.00892
  81 5   F  1S          0.01976   0.00000   0.02478  -0.01404   0.00000
  82        2S          0.03262   0.00000   0.04089  -0.02333   0.00000
  83        2PX         0.00000  -0.04018   0.00000   0.00000   0.08799
  84        2PY        -0.06799   0.00000  -0.09575  -0.01601   0.00000
  85        2PZ        -0.10319   0.00000  -0.06339  -0.04091   0.00000
  86        3S         -0.09896   0.00000  -0.12400   0.07673   0.00000
  87        3PX         0.00000  -0.04590   0.00000   0.00000   0.08934
  88        3PY        -0.10497   0.00000  -0.14763  -0.00405   0.00000
  89        3PZ        -0.14658   0.00000  -0.09209  -0.03618   0.00000
  90        4S         -0.32033   0.00000  -0.43346   0.24735   0.00000
  91        4PX         0.00000  -0.12900   0.00000   0.00000   0.33474
  92        4PY        -0.10406   0.00000  -0.16358  -0.09664   0.00000
  93        4PZ        -0.19604   0.00000  -0.13013  -0.16156   0.00000
  94        5S          0.56457   0.00000   0.41822   1.14529   0.00000
  95        5PX         0.00000  -0.05999   0.00000   0.00000  -1.01382
  96        5PY        -0.06683   0.00000  -0.25902   1.23202   0.00000
  97        5PZ         0.05230   0.00000  -0.03174   1.16563   0.00000
  98        6D 0        0.00150   0.00000  -0.00179  -0.00061   0.00000
  99        6D+1        0.00000   0.00081   0.00000   0.00000   0.00028
 100        6D-1        0.00198   0.00000   0.00165  -0.00144   0.00000
 101        6D+2       -0.00009   0.00000  -0.00260   0.00075   0.00000
 102        6D-2        0.00000   0.00198   0.00000   0.00000   0.00130
 103        7D 0        0.01139   0.00000  -0.01013  -0.00298   0.00000
 104        7D+1        0.00000   0.00084   0.00000   0.00000  -0.00225
 105        7D-1        0.00715   0.00000   0.00775  -0.01825   0.00000
 106        7D+2        0.00208   0.00000  -0.00909   0.00726   0.00000
 107        7D-2        0.00000   0.01327   0.00000   0.00000   0.00892
                          26        27        28        29        30
                        (A1)--V   (A1)--V   (B2)--V   (B1)--V   (A1)--V
     Eigenvalues --     0.24979   0.27020   0.31865   0.34502   0.36520
   1 1   C  1S         -0.02188   0.00717   0.00000   0.00000  -0.05164
   2        2S         -0.03740   0.00863   0.00000   0.00000  -0.08756
   3        2PX         0.00000   0.00000   0.00000  -0.00563   0.00000
   4        2PY         0.00000   0.00000  -0.06495   0.00000   0.00000
   5        2PZ        -0.07053   0.09037   0.00000   0.00000  -0.12176
   6        3S          0.15236   0.04696   0.00000   0.00000   0.22242
   7        3PX         0.00000   0.00000   0.00000   0.03287   0.00000
   8        3PY         0.00000   0.00000  -0.12869   0.00000   0.00000
   9        3PZ        -0.12064   0.08588   0.00000   0.00000  -0.26188
  10        4S          0.39302  -0.92742   0.00000   0.00000   3.29960
  11        4PX         0.00000   0.00000   0.00000   2.65196   0.00000
  12        4PY         0.00000   0.00000  -2.00839   0.00000   0.00000
  13        4PZ         0.95707   2.25920   0.00000   0.00000  -1.72865
  14        5S          0.82851   3.96039   0.00000   0.00000   8.05697
  15        5PX         0.00000   0.00000   0.00000   4.94726   0.00000
  16        5PY         0.00000   0.00000  -1.55229   0.00000   0.00000
  17        5PZ         1.24322   0.94559   0.00000   0.00000  -0.17661
  18        6D 0        0.00011  -0.01331   0.00000   0.00000   0.01548
  19        6D+1        0.00000   0.00000   0.00000   0.00404   0.00000
  20        6D-1        0.00000   0.00000  -0.00719   0.00000   0.00000
  21        6D+2        0.00489  -0.00308   0.00000   0.00000   0.00438
  22        6D-2        0.00000   0.00000   0.00000   0.00000   0.00000
  23        7D 0        0.00198   0.03982   0.00000   0.00000  -0.05724
  24        7D+1        0.00000   0.00000   0.00000   0.26457   0.00000
  25        7D-1        0.00000   0.00000   0.14732   0.00000   0.00000
  26        7D+2        0.16639   0.07378   0.00000   0.00000  -0.03254
  27        7D-2        0.00000   0.00000   0.00000   0.00000   0.00000
  28 2   H  1S         -0.00410  -0.01117   0.00000  -0.04469  -0.02166
  29        2S         -0.26342  -0.12092   0.00000   0.40115  -0.08901
  30        3S         -0.37047  -3.12944   0.00000   3.00442  -0.91465
  31        4S         -0.50340  -0.80399   0.00000   4.10447  -1.90813
  32        5PX         0.00119  -0.00187   0.00000  -0.00189   0.00320
  33        5PY         0.00000   0.00000   0.00003   0.00000   0.00000
  34        5PZ        -0.00109  -0.00232   0.00000  -0.00116   0.00158
  35        6PX        -0.01388   0.01932   0.00000   0.02065  -0.00878
  36        6PY         0.00000   0.00000  -0.00843   0.00000   0.00000
  37        6PZ         0.01196  -0.00690   0.00000  -0.00964  -0.00712
  38        7PX        -0.08002  -0.44996   0.00000   0.38387   0.27477
  39        7PY         0.00000   0.00000   0.22664   0.00000   0.00000
  40        7PZ        -0.08302  -0.10116   0.00000  -0.53174   0.39193
  41 3   H  1S         -0.00410  -0.01117   0.00000   0.04469  -0.02166
  42        2S         -0.26342  -0.12092   0.00000  -0.40115  -0.08901
  43        3S         -0.37047  -3.12944   0.00000  -3.00442  -0.91465
  44        4S         -0.50340  -0.80399   0.00000  -4.10447  -1.90813
  45        5PX        -0.00119   0.00187   0.00000  -0.00189  -0.00320
  46        5PY         0.00000   0.00000   0.00003   0.00000   0.00000
  47        5PZ        -0.00109  -0.00232   0.00000   0.00116   0.00158
  48        6PX         0.01388  -0.01932   0.00000   0.02065   0.00878
  49        6PY         0.00000   0.00000  -0.00843   0.00000   0.00000
  50        6PZ         0.01196  -0.00690   0.00000   0.00964  -0.00712
  51        7PX         0.08002   0.44996   0.00000   0.38387  -0.27477
  52        7PY         0.00000   0.00000   0.22664   0.00000   0.00000
  53        7PZ        -0.08302  -0.10116   0.00000   0.53174   0.39193
  54 4   F  1S          0.01306   0.00074   0.00810   0.00000  -0.00754
  55        2S          0.02238   0.00133   0.01375   0.00000  -0.01193
  56        2PX         0.00000   0.00000   0.00000   0.09589   0.00000
  57        2PY         0.08929   0.01962  -0.07556   0.00000   0.10570
  58        2PZ         0.05992  -0.01539  -0.02084   0.00000  -0.05190
  59        3S         -0.08974  -0.00695  -0.05531   0.00000   0.02775
  60        3PX         0.00000   0.00000   0.00000   0.10710   0.00000
  61        3PY         0.11870   0.01867  -0.07165   0.00000   0.11435
  62        3PZ         0.05359  -0.01116  -0.02038   0.00000  -0.05620
  63        4S          0.00208   0.01539   0.03092   0.00000   0.30105
  64        4PX         0.00000   0.00000   0.00000   0.35208   0.00000
  65        4PY         0.15405   0.04476  -0.45614   0.00000   0.50954
  66        4PZ         0.31072  -0.05740  -0.00145   0.00000  -0.26793
  67        5S          0.52287   1.51850   2.04927   0.00000  -4.07379
  68        5PX         0.00000   0.00000   0.00000  -1.90272   0.00000
  69        5PY        -0.50783  -1.52078   0.97310   0.00000   0.24415
  70        5PZ        -1.01098   0.93112   1.27629   0.00000   0.04930
  71        6D 0        0.00067   0.00076  -0.00204   0.00000  -0.00131
  72        6D+1        0.00000   0.00000   0.00000   0.00134   0.00000
  73        6D-1       -0.00055   0.00313   0.00326   0.00000  -0.00379
  74        6D+2        0.00027   0.00209  -0.00039   0.00000  -0.00360
  75        6D-2        0.00000   0.00000   0.00000  -0.00093   0.00000
  76        7D 0        0.00605   0.00576  -0.01036   0.00000  -0.00916
  77        7D+1        0.00000   0.00000   0.00000   0.00463   0.00000
  78        7D-1       -0.00670   0.01229  -0.00351   0.00000   0.00139
  79        7D+2       -0.00576   0.01467  -0.00923   0.00000  -0.00258
  80        7D-2        0.00000   0.00000   0.00000  -0.00622   0.00000
  81 5   F  1S          0.01306   0.00074  -0.00810   0.00000  -0.00754
  82        2S          0.02238   0.00133  -0.01375   0.00000  -0.01193
  83        2PX         0.00000   0.00000   0.00000   0.09589   0.00000
  84        2PY        -0.08929  -0.01962  -0.07556   0.00000  -0.10570
  85        2PZ         0.05992  -0.01539   0.02084   0.00000  -0.05190
  86        3S         -0.08974  -0.00695   0.05531   0.00000   0.02775
  87        3PX         0.00000   0.00000   0.00000   0.10710   0.00000
  88        3PY        -0.11870  -0.01867  -0.07165   0.00000  -0.11435
  89        3PZ         0.05359  -0.01116   0.02038   0.00000  -0.05620
  90        4S          0.00208   0.01539  -0.03092   0.00000   0.30105
  91        4PX         0.00000   0.00000   0.00000   0.35208   0.00000
  92        4PY        -0.15405  -0.04476  -0.45614   0.00000  -0.50954
  93        4PZ         0.31072  -0.05740   0.00145   0.00000  -0.26793
  94        5S          0.52287   1.51850  -2.04927   0.00000  -4.07379
  95        5PX         0.00000   0.00000   0.00000  -1.90272   0.00000
  96        5PY         0.50783   1.52078   0.97310   0.00000  -0.24415
  97        5PZ        -1.01098   0.93112  -1.27629   0.00000   0.04930
  98        6D 0        0.00067   0.00076   0.00204   0.00000  -0.00131
  99        6D+1        0.00000   0.00000   0.00000   0.00134   0.00000
 100        6D-1        0.00055  -0.00313   0.00326   0.00000   0.00379
 101        6D+2        0.00027   0.00209   0.00039   0.00000  -0.00360
 102        6D-2        0.00000   0.00000   0.00000   0.00093   0.00000
 103        7D 0        0.00605   0.00576   0.01036   0.00000  -0.00916
 104        7D+1        0.00000   0.00000   0.00000   0.00463   0.00000
 105        7D-1        0.00670  -0.01229  -0.00351   0.00000  -0.00139
 106        7D+2       -0.00576   0.01467   0.00923   0.00000  -0.00258
 107        7D-2        0.00000   0.00000   0.00000   0.00622   0.00000
                          31        32        33        34        35
                        (B2)--V   (B1)--V   (A2)--V   (A1)--V   (A1)--V
     Eigenvalues --     0.37278   0.37921   0.38785   0.41241   0.46417
   1 1   C  1S          0.00000   0.00000   0.00000   0.01999   0.03772
   2        2S          0.00000   0.00000   0.00000   0.03783   0.06526
   3        2PX         0.00000  -0.10510   0.00000   0.00000   0.00000
   4        2PY        -0.14144   0.00000   0.00000   0.00000   0.00000
   5        2PZ         0.00000   0.00000   0.00000   0.06265  -0.19262
   6        3S          0.00000   0.00000   0.00000  -0.30692  -0.30277
   7        3PX         0.00000  -0.10559   0.00000   0.00000   0.00000
   8        3PY        -0.21841   0.00000   0.00000   0.00000   0.00000
   9        3PZ         0.00000   0.00000   0.00000   0.18523  -0.25808
  10        4S          0.00000   0.00000   0.00000   8.26424   6.37128
  11        4PX         0.00000   1.95350   0.00000   0.00000   0.00000
  12        4PY        -3.82918   0.00000   0.00000   0.00000   0.00000
  13        4PZ         0.00000   0.00000   0.00000   1.84601   3.60075
  14        5S          0.00000   0.00000   0.00000  12.15092  -0.27302
  15        5PX         0.00000  -0.49917   0.00000   0.00000   0.00000
  16        5PY        -0.56686   0.00000   0.00000   0.00000   0.00000
  17        5PZ         0.00000   0.00000   0.00000   2.40443  -0.10394
  18        6D 0        0.00000   0.00000   0.00000  -0.02456   0.01657
  19        6D+1        0.00000   0.02052   0.00000   0.00000   0.00000
  20        6D-1       -0.00694   0.00000   0.00000   0.00000   0.00000
  21        6D+2        0.00000   0.00000   0.00000   0.00605  -0.00529
  22        6D-2        0.00000   0.00000  -0.03837   0.00000   0.00000
  23        7D 0        0.00000   0.00000   0.00000   0.03302  -0.01206
  24        7D+1        0.00000   0.27394   0.00000   0.00000   0.00000
  25        7D-1        0.10845   0.00000   0.00000   0.00000   0.00000
  26        7D+2        0.00000   0.00000   0.00000   0.05508   0.50328
  27        7D-2        0.00000   0.00000   0.06303   0.00000   0.00000
  28 2   H  1S          0.00000  -0.11133   0.00000   0.10108   0.11518
  29        2S          0.00000  -0.23889   0.00000  -0.09432  -0.47333
  30        3S          0.00000   3.91047   0.00000  -5.36678  -5.61844
  31        4S          0.00000  -1.67195   0.00000  -3.19897   0.94659
  32        5PX         0.00000  -0.00135   0.00000  -0.00602  -0.00137
  33        5PY         0.00300   0.00000   0.01178   0.00000   0.00000
  34        5PZ         0.00000  -0.00934   0.00000  -0.00471   0.00642
  35        6PX         0.00000  -0.00005   0.00000   0.01406  -0.03736
  36        6PY        -0.02156   0.00000  -0.02046   0.00000   0.00000
  37        6PZ         0.00000   0.02428   0.00000   0.00758   0.00778
  38        7PX         0.00000   0.53937   0.00000  -1.42333  -1.39042
  39        7PY         0.64604   0.00000   1.05695   0.00000   0.00000
  40        7PZ         0.00000  -1.17611   0.00000   0.14474   1.38443
  41 3   H  1S          0.00000   0.11133   0.00000   0.10108   0.11518
  42        2S          0.00000   0.23889   0.00000  -0.09432  -0.47333
  43        3S          0.00000  -3.91047   0.00000  -5.36678  -5.61844
  44        4S          0.00000   1.67195   0.00000  -3.19897   0.94659
  45        5PX         0.00000  -0.00135   0.00000   0.00602   0.00137
  46        5PY         0.00300   0.00000  -0.01178   0.00000   0.00000
  47        5PZ         0.00000   0.00934   0.00000  -0.00471   0.00642
  48        6PX         0.00000  -0.00005   0.00000  -0.01406   0.03736
  49        6PY        -0.02156   0.00000   0.02046   0.00000   0.00000
  50        6PZ         0.00000  -0.02428   0.00000   0.00758   0.00778
  51        7PX         0.00000   0.53937   0.00000   1.42333   1.39042
  52        7PY         0.64604   0.00000  -1.05695   0.00000   0.00000
  53        7PZ         0.00000   1.17611   0.00000   0.14474   1.38443
  54 4   F  1S          0.01021   0.00000   0.00000  -0.02255   0.00227
  55        2S          0.01627   0.00000   0.00000  -0.03775   0.00340
  56        2PX         0.00000   0.02140   0.00019   0.00000   0.00000
  57        2PY        -0.02828   0.00000   0.00000  -0.03031   0.02662
  58        2PZ         0.06217   0.00000   0.00000   0.02407   0.01329
  59        3S         -0.03839   0.00000   0.00000   0.12667  -0.00472
  60        3PX         0.00000   0.04871   0.01950   0.00000   0.00000
  61        3PY        -0.03676   0.00000   0.00000  -0.06464   0.04516
  62        3PZ         0.05196   0.00000   0.00000   0.04016   0.03724
  63        4S         -0.32606   0.00000   0.00000   0.48284  -0.05719
  64        4PX         0.00000  -0.06055  -0.13283   0.00000   0.00000
  65        4PY        -0.17465   0.00000   0.00000   0.07501  -0.10741
  66        4PZ         0.42078   0.00000   0.00000   0.01639   0.00800
  67        5S          5.44355   0.00000   0.00000  -2.71452   1.92384
  68        5PX         0.00000   0.57205   0.78772   0.00000   0.00000
  69        5PY        -2.17487   0.00000   0.00000   0.24696  -0.89760
  70        5PZ         0.62526   0.00000   0.00000  -0.87309   0.82879
  71        6D 0       -0.00068   0.00000   0.00000   0.00075  -0.00125
  72        6D+1        0.00000  -0.00287  -0.00158   0.00000   0.00000
  73        6D-1        0.00379   0.00000   0.00000  -0.00138   0.00210
  74        6D+2        0.00377   0.00000   0.00000  -0.00071   0.00041
  75        6D-2        0.00000   0.00238   0.00103   0.00000   0.00000
  76        7D 0       -0.00198   0.00000   0.00000   0.00844  -0.00535
  77        7D+1        0.00000  -0.01091  -0.02730   0.00000   0.00000
  78        7D-1       -0.00331   0.00000   0.00000  -0.00617   0.00403
  79        7D+2        0.01413   0.00000   0.00000   0.01593  -0.02813
  80        7D-2        0.00000   0.01374   0.01335   0.00000   0.00000
  81 5   F  1S         -0.01021   0.00000   0.00000  -0.02255   0.00227
  82        2S         -0.01627   0.00000   0.00000  -0.03775   0.00340
  83        2PX         0.00000   0.02140  -0.00019   0.00000   0.00000
  84        2PY        -0.02828   0.00000   0.00000   0.03031  -0.02662
  85        2PZ        -0.06217   0.00000   0.00000   0.02407   0.01329
  86        3S          0.03839   0.00000   0.00000   0.12667  -0.00472
  87        3PX         0.00000   0.04871  -0.01950   0.00000   0.00000
  88        3PY        -0.03676   0.00000   0.00000   0.06464  -0.04516
  89        3PZ        -0.05196   0.00000   0.00000   0.04016   0.03724
  90        4S          0.32606   0.00000   0.00000   0.48284  -0.05719
  91        4PX         0.00000  -0.06055   0.13283   0.00000   0.00000
  92        4PY        -0.17465   0.00000   0.00000  -0.07501   0.10741
  93        4PZ        -0.42078   0.00000   0.00000   0.01639   0.00800
  94        5S         -5.44355   0.00000   0.00000  -2.71452   1.92384
  95        5PX         0.00000   0.57205  -0.78772   0.00000   0.00000
  96        5PY        -2.17487   0.00000   0.00000  -0.24696   0.89760
  97        5PZ        -0.62526   0.00000   0.00000  -0.87309   0.82879
  98        6D 0        0.00068   0.00000   0.00000   0.00075  -0.00125
  99        6D+1        0.00000  -0.00287   0.00158   0.00000   0.00000
 100        6D-1        0.00379   0.00000   0.00000   0.00138  -0.00210
 101        6D+2       -0.00377   0.00000   0.00000  -0.00071   0.00041
 102        6D-2        0.00000  -0.00238   0.00103   0.00000   0.00000
 103        7D 0        0.00198   0.00000   0.00000   0.00844  -0.00535
 104        7D+1        0.00000  -0.01091   0.02730   0.00000   0.00000
 105        7D-1       -0.00331   0.00000   0.00000   0.00617  -0.00403
[...]
      X X                                                                               X X                                          
        X                                                                               X X                                          
                                                                                        X X                                          
                                                                                        X X                                          
                                                                                        X X                                          
                                                                                        X X                                          
                                                                                        X X                                          
                                                                                          X                                          
                                                                                          X                                          
                                                                                          X                                          
                                                                                          X                                          
                                                                                          X                                          
                                                                                          X                                          
                                                                                          X                                          
                                                                                          X                                          
                                                                                          X                                          
                                                                                          X                                          
                                                                                          X                                          
                                                                                          X                                          
 
 ***** Axes restored to original set *****
 -------------------------------------------------------------------
 Center     Atomic                   Forces (Hartrees/Bohr)
 Number     Number              X              Y              Z
 -------------------------------------------------------------------
      1        6          -0.000002182    0.000001543    0.000002672
      2        1           0.000000758   -0.000001511   -0.000000365
      3        1           0.000000758    0.000000439   -0.000001491
      4        9           0.000002300    0.000000460    0.000000797
      5        9          -0.000001634   -0.000000931   -0.000001613
 -------------------------------------------------------------------
 Cartesian Forces:  Max     0.000002672 RMS     0.000001473
 Force constants in Cartesian coordinates: 
                1             2             3             4             5 
      1  0.460020D+00
      2 -0.392764D-01  0.635239D+00
      3 -0.680332D-01 -0.690901D-01  0.555459D+00
      4 -0.696771D-01  0.685794D-01  0.203809D-02  0.900548D-01
      5  0.756677D-01 -0.294911D+00  0.211873D-01 -0.817796D-01  0.312696D+00
      6 -0.205415D-02  0.327624D-01 -0.597438D-01  0.651581D-02 -0.937985D-02
      7 -0.696798D-01 -0.325272D-01  0.604143D-01  0.825882D-02  0.487375D-02
      8 -0.396154D-01 -0.141895D+00  0.121104D+00 -0.798579D-02 -0.986110D-02
      9  0.645066D-01  0.109529D+00 -0.212757D+00  0.101752D-02  0.123210D-02
     10 -0.670714D-01 -0.192881D-01 -0.334077D-01  0.695809D-02 -0.237937D-02
     11 -0.104632D-01 -0.122531D+00 -0.769830D-01 -0.135078D-01 -0.162019D-01
     12 -0.181226D-01 -0.769832D-01 -0.211424D+00 -0.682321D-02 -0.136825D-01
     13 -0.253591D+00  0.225122D-01  0.389885D-01 -0.355946D-01  0.361751D-02
     14  0.136873D-01 -0.759016D-01  0.378194D-02  0.346937D-01  0.827801D-02
     15  0.237034D-01  0.378212D-02 -0.715336D-01 -0.274822D-02  0.642975D-03
                6             7             8             9            10 
      6  0.599075D-01
      7 -0.640668D-02  0.900580D-01
      8  0.222317D-01  0.465346D-01  0.131226D+00
      9  0.368568D-02 -0.675690D-01 -0.114149D+00  0.241374D+00
     10  0.128256D-02  0.695832D-02  0.230078D-02 -0.141877D-02  0.913899D-01
     11 -0.420623D-01  0.844885D-03  0.118669D-01  0.252305D-02  0.452452D-01
     12 -0.109611D-01 -0.151097D-01 -0.258565D-01 -0.390301D-01  0.783679D-01
     13  0.662450D-03 -0.355954D-01 -0.123420D-02  0.346365D-02 -0.382348D-01
     14 -0.355192D-02 -0.197261D-01  0.866324D-02  0.864894D-03 -0.258785D-01
     15  0.711166D-02  0.286710D-01 -0.333027D-02  0.672715D-02 -0.448240D-01
               11            12            13            14            15 
     11  0.120603D+00
     12  0.122616D+00  0.262191D+00
     13 -0.221191D-01 -0.383124D-01  0.363016D+00
     14  0.626268D-02 -0.609410D-02 -0.277640D-02  0.526977D-01
     15 -0.609402D-02 -0.775318D-03 -0.480218D-02  0.499918D-02  0.584701D-01
 FormGI is forming the generalized inverse of G from B-inverse, IUseBI=4.
 Force constants in internal coordinates: 
                1             2             3             4             5 
      1  0.339916D+00
      2  0.367242D-02  0.339916D+00
      3  0.146477D-01  0.146477D-01  0.363090D+00
      4  0.146477D-01  0.146477D-01  0.540817D-01  0.363090D+00
      5  0.296493D-02  0.296493D-02 -0.639467D-02 -0.118846D-01  0.224614D-01
      6  0.462161D-03 -0.175185D-02  0.145781D-01 -0.183255D-01 -0.109048D-01
      7  0.196460D-02 -0.406828D-02 -0.171300D-01  0.173040D-01 -0.166954D-01
      8 -0.175185D-02  0.462161D-03  0.145781D-01 -0.183255D-01 -0.109048D-01
      9 -0.406828D-02  0.196460D-02 -0.171300D-01  0.173040D-01 -0.166954D-01
     10  0.353419D-03  0.353419D-03  0.125046D-01  0.152918D-01  0.341753D-01
     11  0.283313D-02  0.283313D-02  0.106761D-01 -0.379736D-01  0.138004D-01
     12 -0.231506D-02 -0.231506D-02  0.296860D-01 -0.738015D-02 -0.642929D-02
     13  0.184253D-02 -0.415759D-02  0.148430D-01 -0.369008D-02 -0.321464D-02
     14  0.415759D-02 -0.184253D-02 -0.148430D-01  0.369007D-02  0.321464D-02
                6             7             8             9            10 
      6  0.551507D-01
      7 -0.220052D-01  0.110054D+00
      8  0.361545D-02  0.282382D-01  0.551507D-01
      9  0.282382D-01 -0.512776D-01 -0.220052D-01  0.110054D+00
     10 -0.573883D-01 -0.510111D-01 -0.573883D-01 -0.510111D-01  0.193837D+00
     11  0.239636D-01 -0.166083D-01  0.239636D-01 -0.166083D-01 -0.309337D-01
     12  0.947187D-02 -0.168334D-01  0.947187D-02 -0.168334D-01  0.228159D-01
     13  0.214957D-01  0.651512D-02 -0.120238D-01 -0.233485D-01  0.114080D-01
     14  0.120238D-01  0.233485D-01 -0.214957D-01 -0.651512D-02 -0.114080D-01
               11            12            13            14 
     11  0.475114D-01
     12  0.413358D-02  0.293511D-01
     13  0.206679D-02  0.146756D-01  0.356472D-01
     14 -0.206679D-02 -0.146756D-01  0.209717D-01  0.356472D-01
 Leave Link  716 at Fri Sep  6 11:02:11 2024, MaxMem=  1073741824 cpu:               0.2 elap:               0.0
 (Enter /Users/asuyarger/Applications/G16/g16/l103.exe)

 GradGradGradGradGradGradGradGradGradGradGradGradGradGradGradGradGradGrad
 Berny optimization.
 Red2BG is reusing G-inverse.
 Internal  Forces:  Max     0.000003406 RMS     0.000001391
 Search for a local minimum.
 Step number   1 out of a maximum of    2
 All quantities printed in internal units (Hartrees-Bohrs-Radians)
 Second derivative matrix not updated -- analytic derivatives used.
 The second derivative matrix:
                          R1        R2        R3        R4        A1
           R1           0.33992
           R2           0.00367   0.33992
           R3           0.01465   0.01465   0.36309
           R4           0.01465   0.01465   0.05408   0.36309
           A1           0.00296   0.00296  -0.00639  -0.01188   0.02246
           A2           0.00046  -0.00175   0.01458  -0.01833  -0.01090
           A3           0.00196  -0.00407  -0.01713   0.01730  -0.01670
           A4          -0.00175   0.00046   0.01458  -0.01833  -0.01090
           A5          -0.00407   0.00196  -0.01713   0.01730  -0.01670
           A6           0.00035   0.00035   0.01250   0.01529   0.03418
           D1           0.00283   0.00283   0.01068  -0.03797   0.01380
           D2          -0.00232  -0.00232   0.02969  -0.00738  -0.00643
           D3           0.00184  -0.00416   0.01484  -0.00369  -0.00321
           D4           0.00416  -0.00184  -0.01484   0.00369   0.00321
                          A2        A3        A4        A5        A6
           A2           0.05515
           A3          -0.02201   0.11005
           A4           0.00362   0.02824   0.05515
           A5           0.02824  -0.05128  -0.02201   0.11005
           A6          -0.05739  -0.05101  -0.05739  -0.05101   0.19384
           D1           0.02396  -0.01661   0.02396  -0.01661  -0.03093
           D2           0.00947  -0.01683   0.00947  -0.01683   0.02282
           D3           0.02150   0.00652  -0.01202  -0.02335   0.01141
           D4           0.01202   0.02335  -0.02150  -0.00652  -0.01141
                          D1        D2        D3        D4
           D1           0.04751
           D2           0.00413   0.02935
           D3           0.00207   0.01468   0.03565
           D4          -0.00207  -0.01468   0.02097   0.03565
 ITU=  0
     Eigenvalues ---    0.04778   0.08482   0.08631   0.18279   0.26713
     Eigenvalues ---    0.32896   0.33483   0.33664   0.43162
 Angle between quadratic step and forces=  39.04 degrees.
 Linear search not attempted -- first point.
 Iteration  1 RMS(Cart)=  0.00000531 RMS(Int)=  0.00000000
 Iteration  2 RMS(Cart)=  0.00000000 RMS(Int)=  0.00000000
 ITry= 1 IFail=0 DXMaxC= 1.22D-05 DCOld= 1.00D+10 DXMaxT= 3.00D-01 DXLimC= 3.00D+00 Rises=F
 ClnCor:  largest displacement from symmetrization is 7.93D-12 for atom     5.
 Variable       Old X    -DE/DX   Delta X   Delta X   Delta X     New X
                                 (Linear)    (Quad)   (Total)
    R1        2.05715   0.00000   0.00000   0.00000   0.00000   2.05715
    R2        2.05715   0.00000   0.00000   0.00000   0.00000   2.05715
    R3        2.57887   0.00000   0.00000   0.00000   0.00000   2.57888
    R4        2.57887   0.00000   0.00000   0.00000   0.00000   2.57888
    A1        1.98468   0.00000   0.00000  -0.00001  -0.00001   1.98468
    A2        1.89604  -0.00000   0.00000  -0.00000  -0.00000   1.89604
    A3        1.89604  -0.00000   0.00000  -0.00000  -0.00000   1.89604
    A4        1.89604  -0.00000   0.00000  -0.00000  -0.00000   1.89604
    A5        1.89604  -0.00000   0.00000  -0.00000  -0.00000   1.89604
    A6        1.89318   0.00000   0.00000   0.00001   0.00001   1.89319
    D1        2.16714  -0.00000   0.00000  -0.00001  -0.00001   2.16713
    D2       -2.16714   0.00000   0.00000   0.00001   0.00001  -2.16713
    D3        2.05802   0.00000   0.00000   0.00001   0.00001   2.05803
    D4       -2.05802  -0.00000   0.00000  -0.00001  -0.00001  -2.05803
         Item               Value     Threshold  Converged?
 Maximum Force            0.000003     0.000015     YES
 RMS     Force            0.000001     0.000010     YES
 Maximum Displacement     0.000012     0.000060     YES
 RMS     Displacement     0.000005     0.000040     YES
 Predicted change in Energy=-4.762449D-11
 Optimization completed.
    -- Stationary point found.
                           ----------------------------
                           !   Optimized Parameters   !
                           ! (Angstroms and Degrees)  !
 --------------------------                            --------------------------
 ! Name  Definition              Value          Derivative Info.                !
 --------------------------------------------------------------------------------
 ! R1    R(1,2)                  1.0886         -DE/DX =    0.0                 !
 ! R2    R(1,3)                  1.0886         -DE/DX =    0.0                 !
 ! R3    R(1,4)                  1.3647         -DE/DX =    0.0                 !
 ! R4    R(1,5)                  1.3647         -DE/DX =    0.0                 !
 ! A1    A(2,1,3)              113.714          -DE/DX =    0.0                 !
 ! A2    A(2,1,4)              108.6351         -DE/DX =    0.0                 !
 ! A3    A(2,1,5)              108.6351         -DE/DX =    0.0                 !
 ! A4    A(3,1,4)              108.6351         -DE/DX =    0.0                 !
 ! A5    A(3,1,5)              108.6351         -DE/DX =    0.0                 !
 ! A6    A(4,1,5)              108.4711         -DE/DX =    0.0                 !
 ! D1    D(2,1,4,3)            124.1679         -DE/DX =    0.0                 !
 ! D2    D(2,1,5,3)           -124.1679         -DE/DX =    0.0                 !
 ! D3    D(2,1,5,4)            117.916          -DE/DX =    0.0                 !
 ! D4    D(3,1,5,4)           -117.916          -DE/DX =    0.0                 !
 --------------------------------------------------------------------------------
 GradGradGradGradGradGradGradGradGradGradGradGradGradGradGradGradGradGrad

 Leave Link  103 at Fri Sep  6 11:02:11 2024, MaxMem=  1073741824 cpu:               0.1 elap:               0.0
 (Enter /Users/asuyarger/Applications/G16/g16/l9999.exe)

 ----------------------------------------------------------------------

 Electric dipole moment (input orientation):
 (Debye = 10**-18 statcoulomb cm , SI units = C m)
                  (au)            (Debye)         (10**-30 SI)
   Tot        0.797452D+00      0.202692D+01      0.676108D+01
   x          0.460405D+00      0.117023D+01      0.390348D+01
   y         -0.325564D+00     -0.827501D+00     -0.276025D+01
   z         -0.563884D+00     -0.143325D+01     -0.478081D+01

 Dipole polarizability, Alpha (input orientation).
 (esu units = cm**3 , SI units = C**2 m**2 J**-1)
 Alpha(0;0):
               (au)            (10**-24 esu)      (10**-40 SI)
   iso        0.168132D+02      0.249146D+01      0.277213D+01
   aniso      0.240175D+01      0.355903D+00      0.395996D+00
   xx         0.177367D+02      0.262831D+01      0.292439D+01
   yx         0.351799D+00      0.521312D-01      0.580038D-01
   yy         0.159076D+02      0.235726D+01      0.262281D+01
   zx         0.609382D+00      0.903011D-01      0.100474D+00
   zy         0.768777D+00      0.113921D+00      0.126754D+00
   zz         0.167953D+02      0.248881D+01      0.276917D+01

 ----------------------------------------------------------------------

 Dipole orientation:
     6         -1.20627918         -1.12920650         -1.60641678
     1         -0.91502733          0.56845927         -0.48171002
     1         -1.49753103         -2.82687228         -0.48171002
     9          0.85615567         -1.48303820         -3.11365008
     9         -3.26871403         -0.77537480         -3.11365008

 Electric dipole moment (dipole orientation):
 (Debye = 10**-18 statcoulomb cm , SI units = C m)
                  (au)            (Debye)         (10**-30 SI)
   Tot        0.797452D+00      0.202692D+01      0.676108D+01
   x          0.000000D+00      0.000000D+00      0.000000D+00
   y          0.000000D+00      0.000000D+00      0.000000D+00
   z          0.797452D+00      0.202692D+01      0.676108D+01

 Dipole polarizability, Alpha (dipole orientation).
 (esu units = cm**3 , SI units = C**2 m**2 J**-1)
 Alpha(0;0):
               (au)            (10**-24 esu)      (10**-40 SI)
   iso        0.168132D+02      0.249146D+01      0.277213D+01
   aniso      0.240175D+01      0.355903D+00      0.395996D+00
   xx         0.181551D+02      0.269030D+01      0.299337D+01
   yx        -0.461723D+00     -0.684203D-01     -0.761279D-01
   yy         0.155430D+02      0.230323D+01      0.256269D+01
   zx         0.000000D+00      0.000000D+00      0.000000D+00
   zy         0.000000D+00      0.000000D+00      0.000000D+00
   zz         0.167416D+02      0.248085D+01      0.276032D+01

 ----------------------------------------------------------------------
 1\1\GINC-JEFFSMACSTUDIO\Freq\RB3LYP\6-311++G(2d,3p)\C1H2F2\ROOT\06-Sep
 -2024\0\\#P Geom=AllCheck Guess=TCheck SCRF=Check GenChk RB3LYP/6-311+
 +G(2d,3p) Freq\\R32 DFT B3LPY 6-311++g(2d,3p) Opt Freq - Full - NBO\\0
 ,1\C,-0.9219788336,0.7981217223,-0.0113963365\H,-0.5783704547,-0.23423
 36048,0.0235009134\H,-0.5783510056,1.3445150252,-0.8879899322\F,-0.478
 3236502,1.4433934817,1.1062567256\F,-2.2866076767,0.8040936249,-0.0010
 818146\\Version=EM64M-G16RevA.03\State=1-A1\HF=-239.072583\RMSD=5.333e
 -09\RMSF=1.473e-06\ZeroPoint=0.0325396\Thermal=0.0356802\Dipole=0.4604
 051,-0.3255641,-0.5638837\DipoleDeriv=1.3891397,0.1200625,0.2079687,0.
 1200625,0.8393346,0.219388,0.2079687,0.219388,1.092668,0.0062957,0.024
 3384,0.0035815,0.0629105,-0.1078469,-0.030601,-0.0186873,0.0323873,0.0
 289117,0.0062939,-0.009068,0.0228709,-0.0476401,-0.0060504,0.0911579,0
 .0451398,0.0281697,-0.072883,-0.3983169,-0.0854103,-0.1479375,-0.15689
 9,-0.4383546,-0.2709797,-0.2717596,-0.2709782,-0.7512602,-1.0034124,-0
 .0499225,-0.0864837,0.0215662,-0.2870827,-0.0089653,0.0373384,-0.00896
 68,-0.2974365\Polar=17.7367412,0.351799,15.9075994,0.6093824,0.7687768
 ,16.7953239\Quadrupole=-0.9777531,0.7435382,0.2342149,-0.6768908,-1.17
 24516,-0.4410579\PG=C02V [C2(C1),SGV(F2),SGV'(H2)]\NImag=0\\0.46001971
 ,-0.03927636,0.63523881,-0.06803324,-0.06909006,0.55545853,-0.06967709
 ,0.06857944,0.00203809,0.09005482,0.07566766,-0.29491110,0.02118730,-0
 .08177955,0.31269612,-0.00205415,0.03276236,-0.05974375,0.00651581,-0.
 00937985,0.05990755,-0.06967975,-0.03252719,0.06041434,0.00825882,0.00
 487375,-0.00640668,0.09005798,-0.03961540,-0.14189517,0.12110386,-0.00
 798579,-0.00986110,0.02223174,0.04653462,0.13122617,0.06450659,0.10952
 880,-0.21275702,0.00101752,0.00123210,0.00368568,-0.06756898,-0.114148
 85,0.24137433,-0.06707144,-0.01928809,-0.03340771,0.00695809,-0.002379
 37,0.00128256,0.00695832,0.00230078,-0.00141877,0.09138987,-0.01046321
 ,-0.12253096,-0.07698304,-0.01350778,-0.01620192,-0.04206234,0.0008448
 8,0.01186685,0.00252305,0.04524520,0.12060336,-0.01812257,-0.07698323,
 -0.21142418,-0.00682321,-0.01368254,-0.01096113,-0.01510967,-0.0258564
 8,-0.03903015,0.07836788,0.12261635,0.26219078,-0.25359143,0.02251219,
 0.03898852,-0.03559464,0.00361751,0.00066245,-0.03559537,-0.00123420,0
 .00346365,-0.03823483,-0.02211910,-0.03831243,0.36301627,0.01368731,-0
 .07590158,0.00378194,0.03469369,0.00827801,-0.00355192,-0.01972607,0.0
 0866324,0.00086489,-0.02587853,0.00626268,-0.00609410,-0.00277640,0.05
 269765,0.02370337,0.00378212,-0.07153358,-0.00274822,0.00064297,0.0071
 1166,0.02867099,-0.00333027,0.00672715,-0.04482396,-0.00609402,-0.0007
 7532,-0.00480218,0.00499918,0.05847008\\0.00000218,-0.00000154,-0.0000
 0267,-0.00000076,0.00000151,0.00000037,-0.00000076,-0.00000044,0.00000
 149,-0.00000230,-0.00000046,-0.00000080,0.00000163,0.00000093,0.000001
 61\\\@


 THE WISE MAN HAS THE POWER TO REASON AWAY
 WHAT A FOOL BELIEVES.
                     - DOOBIE BROTHERS
 Job cpu time:       0 days  0 hours  0 minutes  5.6 seconds.
 Elapsed time:       0 days  0 hours  0 minutes  5.1 seconds.
 File lengths (MBytes):  RWF=     10 Int=      0 D2E=      0 Chk=      2 Scr=      1
 Normal termination of Gaussian 16 at Fri Sep  6 11:02:11 2024.
