 Entering Gaussian System, Link 0=g16
 Input=/Users/asuyarger/Downloads/r32_uPM6_Opt_Freq_Full_NBO.gjf
 Output=/Users/asuyarger/Downloads/r32_uPM6_Opt_Freq_Full_NBO.log
 Initial command:
 /Users/asuyarger/Applications/G16/g16/l1.exe "/Users/asuyarger/Applications/G16/scratch/Gau-89353.inp" -scrdir="/Users/asuyarger/Applications/G16/scratch/"
 Entering Link 1 = /Users/asuyarger/Applications/G16/g16/l1.exe PID=     89354.
  
 Copyright (c) 1988,1990,1992,1993,1995,1998,2003,2009,2016,
            Gaussian, Inc.  All Rights Reserved.
  
 This is part of the Gaussian(R) 16 program.  It is based on
 the Gaussian(R) 09 system (copyright 2009, Gaussian, Inc.),
 the Gaussian(R) 03 system (copyright 2003, Gaussian, Inc.),
 the Gaussian(R) 98 system (copyright 1998, Gaussian, Inc.),
 the Gaussian(R) 94 system (copyright 1995, Gaussian, Inc.),
 the Gaussian 92(TM) system (copyright 1992, Gaussian, Inc.),
 the Gaussian 90(TM) system (copyright 1990, Gaussian, Inc.),
 the Gaussian 88(TM) system (copyright 1988, Gaussian, Inc.),
 the Gaussian 86(TM) system (copyright 1986, Carnegie Mellon
 University), and the Gaussian 82(TM) system (copyright 1983,
 Carnegie Mellon University). Gaussian is a federally registered
 trademark of Gaussian, Inc.
  
 This software contains proprietary and confidential information,
 including trade secrets, belonging to Gaussian, Inc.
  
 This software is provided under written license and may be
 used, copied, transmitted, or stored only in accord with that
 written license.
  
 The following legend is applicable only to US Government
 contracts under FAR:
  
                    RESTRICTED RIGHTS LEGEND
  
 Use, reproduction and disclosure by the US Government is
 subject to restrictions as set forth in subparagraphs (a)
 and (c) of the Commercial Computer Software - Restricted
 Rights clause in FAR 52.227-19.
  
 Gaussian, Inc.
 340 Quinnipiac St., Bldg. 40, Wallingford CT 06492
  
  
 ---------------------------------------------------------------
 Warning -- This program may not be used in any manner that
 competes with the business of Gaussian, Inc. or will provide
 assistance to any competitor of Gaussian, Inc.  The licensee
 of this program is prohibited from giving any competitor of
 Gaussian, Inc. access to this program.  By using this program,
 the user acknowledges that Gaussian, Inc. is engaged in the
 business of creating and licensing software in the field of
 computational chemistry and represents and warrants to the
 licensee that it is not a competitor of Gaussian, Inc. and that
 it will not use this program in any manner prohibited above.
 ---------------------------------------------------------------
  

 Cite this work as:
 Gaussian 16, Revision A.03,
 M. J. Frisch, G. W. Trucks, H. B. Schlegel, G. E. Scuseria, 
 M. A. Robb, J. R. Cheeseman, G. Scalmani, V. Barone, 
 G. A. Petersson, H. Nakatsuji, X. Li, M. Caricato, A. V. Marenich, 
 J. Bloino, B. G. Janesko, R. Gomperts, B. Mennucci, H. P. Hratchian, 
 J. V. Ortiz, A. F. Izmaylov, J. L. Sonnenberg, D. Williams-Young, 
 F. Ding, F. Lipparini, F. Egidi, J. Goings, B. Peng, A. Petrone, 
 T. Henderson, D. Ranasinghe, V. G. Zakrzewski, J. Gao, N. Rega, 
 G. Zheng, W. Liang, M. Hada, M. Ehara, K. Toyota, R. Fukuda, 
 J. Hasegawa, M. Ishida, T. Nakajima, Y. Honda, O. Kitao, H. Nakai, 
 T. Vreven, K. Throssell, J. A. Montgomery, Jr., J. E. Peralta, 
 F. Ogliaro, M. J. Bearpark, J. J. Heyd, E. N. Brothers, K. N. Kudin, 
 V. N. Staroverov, T. A. Keith, R. Kobayashi, J. Normand, 
 K. Raghavachari, A. P. Rendell, J. C. Burant, S. S. Iyengar, 
 J. Tomasi, M. Cossi, J. M. Millam, M. Klene, C. Adamo, R. Cammi, 
 J. W. Ochterski, R. L. Martin, K. Morokuma, O. Farkas, 
 J. B. Foresman, and D. J. Fox, Gaussian, Inc., Wallingford CT, 2016.
 
 ******************************************
 Gaussian 16:  EM64M-G16RevA.03 25-Dec-2016
                 6-Sep-2024 
 ******************************************
 %nprocshared=10
 Will use up to   10 processors via shared memory.
 %mem=8GB
 %chk=r32_uPM6_Opt_Freq_Full_NBO.chk
 ----------------------------------------------------------------------
 #p opt=tight freq upm6 guess=save pop=(hirshfeld,full,nbo) geom=connec
 tivity polar
 ----------------------------------------------------------------------
 1/7=10,18=20,19=15,26=1,38=1,57=2/1,3;
 2/9=110,12=2,17=6,18=5,40=1/2;
 3/5=2,25=1,41=3900000,71=1,116=2/1,2,3;
 4/35=1/1;
 5/5=2,35=1,38=5,98=1/2;
 6/7=3,28=1,40=1,79=1/1,7;
 7//1,2,3,16;
 1/7=10,18=20,19=15,26=1/3(2);
 2/9=110/2;
 99//99;
 2/9=110/2;
 3/5=2,25=1,41=3900000,71=1,116=2,135=20/1,2,3;
 4/5=5,16=3,35=1/1;
 5/5=2,35=1,38=5,98=1/2;
 7//1,2,3,16;
 1/7=10,18=20,19=15,26=1/3(-5);
 2/9=110/2;
 6/7=3,19=2,28=1,40=1,79=1/1,7;
 99/9=1/99;
 Leave Link    1 at Fri Sep  6 10:58:53 2024, MaxMem=  1073741824 cpu:               0.2 elap:               0.0
 (Enter /Users/asuyarger/Applications/G16/g16/l101.exe)
 ------------------------------
 R32 uPM6 Opt Freq - Full - NBO
 ------------------------------
 Symbolic Z-matrix:
 Charge =  0 Multiplicity = 1
 C                    -0.93128   0.8047    0. 
 H                    -0.57463  -0.20411  0. 
 H                    -0.57461   1.3091   -0.87365 
 F                    -0.48128   1.44109   1.10227 
 F                    -2.28128   0.80472  0. 
 
 ITRead=  0  0  0  0  0
 MicOpt= -1 -1 -1 -1 -1
 NAtoms=      5 NQM=        5 NQMF=       0 NMMI=      0 NMMIF=      0
                NMic=       0 NMicF=      0.
                    Isotopes and Nuclear Properties:
 (Nuclear quadrupole moments (NQMom) in fm**2, nuclear magnetic moments (NMagM)
  in nuclear magnetons)

  Atom         1           2           3           4           5
 IAtWgt=          12           1           1          19          19
 AtmWgt=  12.0000000   1.0078250   1.0078250  18.9984033  18.9984033
 NucSpn=           0           1           1           1           1
 AtZEff=  -0.0000000  -0.0000000  -0.0000000  -0.0000000  -0.0000000
 NQMom=    0.0000000   0.0000000   0.0000000   0.0000000   0.0000000
 NMagM=    0.0000000   2.7928460   2.7928460   2.6288670   2.6288670
 AtZNuc=   6.0000000   1.0000000   1.0000000   9.0000000   9.0000000
 Leave Link  101 at Fri Sep  6 10:58:53 2024, MaxMem=  1073741824 cpu:               1.5 elap:               0.2
 (Enter /Users/asuyarger/Applications/G16/g16/l103.exe)

 GradGradGradGradGradGradGradGradGradGradGradGradGradGradGradGradGradGrad
 Berny optimization.
 Initialization pass.
                           ----------------------------
                           !    Initial Parameters    !
                           ! (Angstroms and Degrees)  !
 --------------------------                            --------------------------
 ! Name  Definition              Value          Derivative Info.                !
 --------------------------------------------------------------------------------
 ! R1    R(1,2)                  1.07           estimate D2E/DX2                !
 ! R2    R(1,3)                  1.07           estimate D2E/DX2                !
 ! R3    R(1,4)                  1.35           estimate D2E/DX2                !
 ! R4    R(1,5)                  1.35           estimate D2E/DX2                !
 ! A1    A(2,1,3)              109.4712         estimate D2E/DX2                !
 ! A2    A(2,1,4)              109.4712         estimate D2E/DX2                !
 ! A3    A(2,1,5)              109.4712         estimate D2E/DX2                !
 ! A4    A(3,1,4)              109.4712         estimate D2E/DX2                !
 ! A5    A(3,1,5)              109.4712         estimate D2E/DX2                !
 ! A6    A(4,1,5)              109.4712         estimate D2E/DX2                !
 ! D1    D(2,1,4,3)            120.0            estimate D2E/DX2                !
 ! D2    D(2,1,5,3)           -120.0            estimate D2E/DX2                !
 ! D3    D(2,1,5,4)            120.0            estimate D2E/DX2                !
 ! D4    D(3,1,5,4)           -120.0            estimate D2E/DX2                !
 --------------------------------------------------------------------------------
 Trust Radius=3.00D-01 FncErr=1.00D-07 GrdErr=1.00D-07 EigMax=2.50D+02 EigMin=1.00D-04
 Number of steps in this run=     24 maximum allowed number of steps=    100.
 GradGradGradGradGradGradGradGradGradGradGradGradGradGradGradGradGradGrad

 Leave Link  103 at Fri Sep  6 10:58:53 2024, MaxMem=  1073741824 cpu:               0.0 elap:               0.0
 (Enter /Users/asuyarger/Applications/G16/g16/l202.exe)
                          Input orientation:                          
 ---------------------------------------------------------------------
 Center     Atomic      Atomic             Coordinates (Angstroms)
 Number     Number       Type             X           Y           Z
 ---------------------------------------------------------------------
      1          6           0       -0.931284    0.804702    0.000000
      2          1           0       -0.574630   -0.204109   -0.000000
      3          1           0       -0.574611    1.309100   -0.873651
      4          9           0       -0.481276    1.441092    1.102270
      5          9           0       -2.281284    0.804718   -0.000000
 ---------------------------------------------------------------------
                    Distance matrix (angstroms):
                    1          2          3          4          5
     1  C    0.000000
     2  H    1.070000   0.000000
     3  H    1.070000   1.747303   0.000000
     4  F    1.350000   1.982524   1.982524   0.000000
     5  F    1.350000   1.982524   1.982524   2.204541   0.000000
 Stoichiometry    CH2F2
 Framework group  C2V[C2(C),SGV(F2),SGV'(H2)]
 Deg. of freedom     4
 Full point group                 C2V     NOp   4
 Largest Abelian subgroup         C2V     NOp   4
 Largest concise Abelian subgroup C2V     NOp   4
                         Standard orientation:                         
 ---------------------------------------------------------------------
 Center     Atomic      Atomic             Coordinates (Angstroms)
 Number     Number       Type             X           Y           Z
 ---------------------------------------------------------------------
      1          6           0       -0.000000    0.000000    0.492080
      2          1           0       -0.873651    0.000000    1.109845
      3          1           0        0.873651    0.000000    1.109845
      4          9           0        0.000000    1.102270   -0.287343
      5          9           0       -0.000000   -1.102270   -0.287343
 ---------------------------------------------------------------------
 Rotational constants (GHZ):          50.9657562          10.5939265           9.2655813
 Leave Link  202 at Fri Sep  6 10:58:53 2024, MaxMem=  1073741824 cpu:               0.1 elap:               0.0
 (Enter /Users/asuyarger/Applications/G16/g16/l301.exe)
 Standard basis: VSTO-6G (5D, 7F)
 Ernie: Thresh=  0.10000D-02 Tol=  0.10000D-05 Strict=F.
  NNHCO=     0 NNPyr=     0 NCTC=     0               EPep=         0.000000000
    EC=        36.989358619  ECS=         0.826814155   EG=         0.078142788
   EHC=         0.000328554  EAt=       -39.469165672  AtH=         0.498596456
 EPDDG=         0.000000000  ECC=        37.894644116 EAtT=        39.967762128
 There are     6 symmetry adapted cartesian basis functions of A1  symmetry.
 There are     1 symmetry adapted cartesian basis functions of A2  symmetry.
 There are     3 symmetry adapted cartesian basis functions of B1  symmetry.
 There are     4 symmetry adapted cartesian basis functions of B2  symmetry.
 There are     6 symmetry adapted basis functions of A1  symmetry.
 There are     1 symmetry adapted basis functions of A2  symmetry.
 There are     3 symmetry adapted basis functions of B1  symmetry.
 There are     4 symmetry adapted basis functions of B2  symmetry.
    14 basis functions,    84 primitive gaussians,    14 cartesian basis functions
    10 alpha electrons       10 beta electrons
       nuclear repulsion energy        77.8624062437 Hartrees.
 IExCor=    0 DFT=F Ex=HF Corr=None ExCW=0 ScaHFX=  1.000000
 ScaDFX=  1.000000  1.000000  1.000000  1.000000 ScalE2=  1.000000  1.000000
 IRadAn=      5 IRanWt=     -1 IRanGd=            0 ICorTp=0 IEmpDi=  4
 Integral buffers will be    131072 words long.
 Regular integral format.
 Two-electron integral symmetry is turned off.
 Leave Link  301 at Fri Sep  6 10:58:53 2024, MaxMem=  1073741824 cpu:               0.2 elap:               0.0
 (Enter /Users/asuyarger/Applications/G16/g16/l302.exe)
 Do NDO integrals.
 NPDir=0 NMtPBC=     1 NCelOv=     1 NCel=       1 NClECP=     1 NCelD=      1
         NCelK=      1 NCelE2=     1 NClLst=     1 CellRange=     0.0.
 One-electron integrals computed using PRISM.
 NBasis=    14 RedAO= T EigKep=  1.00D+00  NBF=     6     1     3     4
 NBsUse=    14 1.00D-06 EigRej= -1.00D+00 NBFU=     6     1     3     4
 Leave Link  302 at Fri Sep  6 10:58:53 2024, MaxMem=  1073741824 cpu:               0.4 elap:               0.1
 (Enter /Users/asuyarger/Applications/G16/g16/l303.exe)
 DipDrv:  MaxL=1.
 Leave Link  303 at Fri Sep  6 10:58:53 2024, MaxMem=  1073741824 cpu:               0.1 elap:               0.0
 (Enter /Users/asuyarger/Applications/G16/g16/l401.exe)
 Simple Huckel Guess.
 JPrj=0 DoOrth=F DoCkMO=F.
 Initial guess orbital symmetries:
 Alpha Orbitals:
       Occupied  (A1) (B2) (A1) (B1) (A1) (B2) (A2) (B2) (A1) (B1)
       Virtual   (B2) (A1) (B1) (A1)
 Beta  Orbitals:
       Occupied  (A1) (B2) (A1) (B1) (A1) (B2) (A2) (B2) (A1) (B1)
       Virtual   (B2) (A1) (B1) (A1)
 The electronic state of the initial guess is 1-A1.
 Initial guess <Sx>= 0.0000 <Sy>= 0.0000 <Sz>= 0.0000 <S**2>= 0.0000 S= 0.0000
 Leave Link  401 at Fri Sep  6 10:58:53 2024, MaxMem=  1073741824 cpu:               0.2 elap:               0.0
 (Enter /Users/asuyarger/Applications/G16/g16/l502.exe)
 Keep J ints in memory in canonical form, NReq=859662.
 FoFCou: FMM=F IPFlag=           0 FMFlag=           0 FMFlg1=           0
         NFxFlg=           0 DoJE=F BraDBF=F KetDBF=F FulRan=T
         wScrn=  0.000000 ICntrl=       600 IOpCl=  2 I1Cent=           0 NGrid=           0
         NMat0=    1 NMatS0=     32 NMatT0=    0 NMatD0=    1 NMtDS0=    0 NMtDT0=    0
 Symmetry not used in FoFCou.
 Two-electron integral symmetry not used.
 UHF open shell SCF:
 Using DIIS extrapolation, IDIIS=  1040.
 Overlap will be assumed to be unity.
 NGot=  1073741824 LenX=  1073680891 LenY=  1073680009
 Requested convergence on RMS density matrix=1.00D-08 within 128 cycles.
 Requested convergence on MAX density matrix=1.00D-06.
 Requested convergence on             energy=1.00D-06.
 No special actions if energy rises.

 Cycle   1  Pass 1  IDiag  1:
 E= 0.216943378653738    
 DIIS: error= 7.41D-02 at cycle   1 NSaved=   1.
 NSaved= 1 IEnMin= 1 EnMin= 0.216943378653738     IErMin= 1 ErrMin= 7.41D-02
 ErrMax= 7.41D-02  0.00D+00 EMaxC= 1.00D-01 BMatC= 5.72D-01 BMatP= 5.72D-01
 IDIUse=3 WtCom= 2.59D-01 WtEn= 7.41D-01
 Coeff-Com:  0.100D+01
 Coeff-En:   0.100D+01
 Coeff:      0.100D+01
 GapD=    2.000 DampG=2.000 DampE=0.500 DampFc=1.0000 IDamp=-1.
 RMSDP=3.20D-02 MaxDP=1.07D-01              OVMax= 0.00D+00

 Cycle   2  Pass 1  IDiag  1:
 E=-0.106702519016011     Delta-E=       -0.323645897670 Rises=F Damp=F
 DIIS: error= 2.02D-02 at cycle   2 NSaved=   2.
 NSaved= 2 IEnMin= 2 EnMin=-0.106702519016011     IErMin= 2 ErrMin= 2.02D-02
 ErrMax= 2.02D-02  0.00D+00 EMaxC= 1.00D-01 BMatC= 6.76D-02 BMatP= 5.72D-01
 IDIUse=3 WtCom= 7.98D-01 WtEn= 2.02D-01
 Coeff-Com: -0.423D+00 0.142D+01
 Coeff-En:   0.000D+00 0.100D+01
 Coeff:     -0.337D+00 0.134D+01
 RMSDP=1.72D-02 MaxDP=6.41D-02 DE=-3.24D-01 OVMax= 0.00D+00

 Cycle   3  Pass 1  IDiag  1:
 E=-0.157427435157800     Delta-E=       -0.050724916142 Rises=F Damp=F
 DIIS: error= 5.86D-03 at cycle   3 NSaved=   3.
 NSaved= 3 IEnMin= 3 EnMin=-0.157427435157800     IErMin= 3 ErrMin= 5.86D-03
 ErrMax= 5.86D-03  0.00D+00 EMaxC= 1.00D-01 BMatC= 3.21D-03 BMatP= 6.76D-02
 IDIUse=3 WtCom= 9.41D-01 WtEn= 5.86D-02
 Coeff-Com:  0.159D+00-0.618D+00 0.146D+01
 Coeff-En:   0.000D+00 0.000D+00 0.100D+01
 Coeff:      0.150D+00-0.581D+00 0.143D+01
 RMSDP=5.81D-03 MaxDP=3.16D-02 DE=-5.07D-02 OVMax= 0.00D+00

 Cycle   4  Pass 1  IDiag  3:
 E=-0.161866465530963     Delta-E=       -0.004439030373 Rises=F Damp=F
 DIIS: error= 2.14D-03 at cycle   4 NSaved=   4.
 NSaved= 4 IEnMin= 4 EnMin=-0.161866465530963     IErMin= 4 ErrMin= 2.14D-03
 ErrMax= 2.14D-03  0.00D+00 EMaxC= 1.00D-01 BMatC= 4.68D-04 BMatP= 3.21D-03
 IDIUse=3 WtCom= 9.79D-01 WtEn= 2.14D-02
 Coeff-Com: -0.450D-01 0.195D+00-0.101D+01 0.186D+01
 Coeff-En:   0.000D+00 0.000D+00 0.000D+00 0.100D+01
 Coeff:     -0.440D-01 0.191D+00-0.991D+00 0.184D+01
 Fock symm off for IB=3 I1=    1 I=    8 J=    6 Cut=1.00D-07 Err=4.10D-03
 Fock matrix is not symmetric: symmetry in diagonalization turned off.
 Gap=     0.585 Goal=   None    Shift=    0.000
 Gap=     0.585 Goal=   None    Shift=    0.000
 RMSDP=3.76D-03 MaxDP=1.85D-02 DE=-4.44D-03 OVMax= 2.38D-02

 Cycle   5  Pass 1  IDiag  3:
 E=-0.162701166347404     Delta-E=       -0.000834700816 Rises=F Damp=F
 DIIS: error= 4.39D-04 at cycle   5 NSaved=   5.
 NSaved= 5 IEnMin= 5 EnMin=-0.162701166347404     IErMin= 5 ErrMin= 4.39D-04
 ErrMax= 4.39D-04  0.00D+00 EMaxC= 1.00D-01 BMatC= 1.16D-05 BMatP= 4.68D-04
 IDIUse=3 WtCom= 9.96D-01 WtEn= 4.39D-03
 Coeff-Com:  0.130D-01-0.592D-01 0.493D+00-0.104D+01 0.159D+01
 Coeff-En:   0.000D+00 0.000D+00 0.000D+00 0.000D+00 0.100D+01
 Coeff:      0.130D-01-0.589D-01 0.490D+00-0.104D+01 0.159D+01
 Gap=     0.584 Goal=   None    Shift=    0.000
 Gap=     0.584 Goal=   None    Shift=    0.000
 RMSDP=3.89D-04 MaxDP=2.87D-03 DE=-8.35D-04 OVMax= 2.87D-03

 Cycle   6  Pass 1  IDiag  3:
 E=-0.162715008328789     Delta-E=       -0.000013841981 Rises=F Damp=F
 DIIS: error= 1.04D-04 at cycle   6 NSaved=   6.
 NSaved= 6 IEnMin= 6 EnMin=-0.162715008328789     IErMin= 6 ErrMin= 1.04D-04
 ErrMax= 1.04D-04  0.00D+00 EMaxC= 1.00D-01 BMatC= 7.91D-07 BMatP= 1.16D-05
 IDIUse=3 WtCom= 9.99D-01 WtEn= 1.04D-03
 Coeff-Com: -0.124D-02 0.832D-02-0.184D+00 0.415D+00-0.790D+00 0.155D+01
 Coeff-En:   0.000D+00 0.000D+00 0.000D+00 0.000D+00 0.000D+00 0.100D+01
 Coeff:     -0.124D-02 0.831D-02-0.184D+00 0.414D+00-0.789D+00 0.155D+01
 Gap=     0.585 Goal=   None    Shift=    0.000
 Gap=     0.585 Goal=   None    Shift=    0.000
 RMSDP=1.27D-04 MaxDP=6.89D-04 DE=-1.38D-05 OVMax= 8.01D-04

 Cycle   7  Pass 1  IDiag  3:
 E=-0.162716109139396     Delta-E=       -0.000001100811 Rises=F Damp=F
 DIIS: error= 1.80D-05 at cycle   7 NSaved=   7.
 NSaved= 7 IEnMin= 7 EnMin=-0.162716109139396     IErMin= 7 ErrMin= 1.80D-05
 ErrMax= 1.80D-05  0.00D+00 EMaxC= 1.00D-01 BMatC= 3.63D-08 BMatP= 7.91D-07
 IDIUse=1 WtCom= 1.00D+00 WtEn= 0.00D+00
 Coeff-Com: -0.397D-03 0.987D-04 0.678D-01-0.156D+00 0.327D+00-0.849D+00
 Coeff-Com:  0.161D+01
 Coeff:     -0.397D-03 0.987D-04 0.678D-01-0.156D+00 0.327D+00-0.849D+00
 Coeff:      0.161D+01
 Gap=     0.585 Goal=   None    Shift=    0.000
 Gap=     0.585 Goal=   None    Shift=    0.000
 RMSDP=2.58D-05 MaxDP=1.22D-04 DE=-1.10D-06 OVMax= 1.88D-04

 Cycle   8  Pass 1  IDiag  3:
 E=-0.162716165439335     Delta-E=       -0.000000056300 Rises=F Damp=F
 DIIS: error= 5.78D-06 at cycle   8 NSaved=   8.
 NSaved= 8 IEnMin= 8 EnMin=-0.162716165439335     IErMin= 8 ErrMin= 5.78D-06
 ErrMax= 5.78D-06  0.00D+00 EMaxC= 1.00D-01 BMatC= 3.88D-09 BMatP= 3.63D-08
 IDIUse=1 WtCom= 1.00D+00 WtEn= 0.00D+00
 Coeff-Com:  0.257D-03-0.965D-03 0.178D-02-0.423D-02-0.790D-02 0.104D+00
 Coeff-Com: -0.490D+00 0.140D+01
 Coeff:      0.257D-03-0.965D-03 0.178D-02-0.423D-02-0.790D-02 0.104D+00
 Coeff:     -0.490D+00 0.140D+01
 Gap=     0.585 Goal=   None    Shift=    0.000
 Gap=     0.585 Goal=   None    Shift=    0.000
 RMSDP=7.97D-06 MaxDP=3.48D-05 DE=-5.63D-08 OVMax= 4.84D-05

 Cycle   9  Pass 1  IDiag  3:
 E=-0.162716171425743     Delta-E=       -0.000000005986 Rises=F Damp=F
 DIIS: error= 1.98D-06 at cycle   9 NSaved=   9.
 NSaved= 9 IEnMin= 9 EnMin=-0.162716171425743     IErMin= 9 ErrMin= 1.98D-06
 ErrMax= 1.98D-06  0.00D+00 EMaxC= 1.00D-01 BMatC= 5.29D-10 BMatP= 3.88D-09
 IDIUse=1 WtCom= 1.00D+00 WtEn= 0.00D+00
 Coeff-Com:  0.294D-04-0.214D-03 0.382D-02-0.766D-02 0.201D-01-0.688D-01
 Coeff-Com:  0.185D+00-0.781D+00 0.165D+01
 Coeff:      0.294D-04-0.214D-03 0.382D-02-0.766D-02 0.201D-01-0.688D-01
 Coeff:      0.185D+00-0.781D+00 0.165D+01
 Gap=     0.585 Goal=   None    Shift=    0.000
 Gap=     0.585 Goal=   None    Shift=    0.000
 RMSDP=3.80D-06 MaxDP=1.53D-05 DE=-5.99D-09 OVMax= 2.72D-05

 Cycle  10  Pass 1  IDiag  3:
 E=-0.162716172295049     Delta-E=       -0.000000000869 Rises=F Damp=F
 DIIS: error= 1.92D-07 at cycle  10 NSaved=  10.
 NSaved=10 IEnMin=10 EnMin=-0.162716172295049     IErMin=10 ErrMin= 1.92D-07
 ErrMax= 1.92D-07  0.00D+00 EMaxC= 1.00D-01 BMatC= 5.51D-12 BMatP= 5.29D-10
 IDIUse=1 WtCom= 1.00D+00 WtEn= 0.00D+00
 Coeff-Com: -0.456D-05 0.409D-04-0.658D-03 0.118D-02-0.409D-02 0.166D-01
 Coeff-Com: -0.438D-01 0.232D+00-0.587D+00 0.139D+01
 Coeff:     -0.456D-05 0.409D-04-0.658D-03 0.118D-02-0.409D-02 0.166D-01
 Coeff:     -0.438D-01 0.232D+00-0.587D+00 0.139D+01
 Gap=     0.585 Goal=   None    Shift=    0.000
 Gap=     0.585 Goal=   None    Shift=    0.000
 RMSDP=3.67D-07 MaxDP=1.25D-06 DE=-8.69D-10 OVMax= 3.23D-06

 Cycle  11  Pass 1  IDiag  3:
 E=-0.162716172302325     Delta-E=       -0.000000000007 Rises=F Damp=F
 DIIS: error= 3.13D-08 at cycle  11 NSaved=  11.
 NSaved=11 IEnMin=11 EnMin=-0.162716172302325     IErMin=11 ErrMin= 3.13D-08
 ErrMax= 3.13D-08  0.00D+00 EMaxC= 1.00D-01 BMatC= 8.43D-14 BMatP= 5.51D-12
 IDIUse=1 WtCom= 1.00D+00 WtEn= 0.00D+00
 Coeff-Com:  0.258D-06-0.200D-05-0.617D-04 0.202D-03-0.312D-04-0.125D-02
 Coeff-Com:  0.380D-02-0.399D-01 0.124D+00-0.369D+00 0.128D+01
 Coeff:      0.258D-06-0.200D-05-0.617D-04 0.202D-03-0.312D-04-0.125D-02
 Coeff:      0.380D-02-0.399D-01 0.124D+00-0.369D+00 0.128D+01
 Gap=     0.585 Goal=   None    Shift=    0.000
 Gap=     0.585 Goal=   None    Shift=    0.000
 RMSDP=3.62D-08 MaxDP=1.58D-07 DE=-7.28D-12 OVMax= 2.54D-07

 Cycle  12  Pass 1  IDiag  3:
 E=-0.162716172302467     Delta-E=       -0.000000000000 Rises=F Damp=F
 DIIS: error= 3.44D-09 at cycle  12 NSaved=  12.
 NSaved=12 IEnMin=12 EnMin=-0.162716172302467     IErMin=12 ErrMin= 3.44D-09
 ErrMax= 3.44D-09  0.00D+00 EMaxC= 1.00D-01 BMatC= 1.14D-15 BMatP= 8.43D-14
 IDIUse=1 WtCom= 1.00D+00 WtEn= 0.00D+00
 Coeff-Com: -0.163D-06 0.112D-05-0.412D-05-0.327D-05-0.609D-04 0.389D-03
 Coeff-Com: -0.104D-02 0.796D-02-0.232D-01 0.650D-01-0.290D+00 0.124D+01
 Coeff:     -0.163D-06 0.112D-05-0.412D-05-0.327D-05-0.609D-04 0.389D-03
 Coeff:     -0.104D-02 0.796D-02-0.232D-01 0.650D-01-0.290D+00 0.124D+01
 Gap=     0.585 Goal=   None    Shift=    0.000
 Gap=     0.585 Goal=   None    Shift=    0.000
 RMSDP=3.53D-09 MaxDP=1.46D-08 DE=-1.42D-13 OVMax= 2.55D-08

 Cycle  13  Pass 2  IDiag  1:
 SCF Done:  E(UPM6) = -0.162716172302     A.U. after   13 cycles
            NFock= 12  Conv=0.35D-08     -V/T= 0.9976
 <Sx>= 0.0000 <Sy>= 0.0000 <Sz>= 0.0000 <S**2>= 0.0000 S= 0.0000
 <L.S>= 0.000000000000E+00
 KE=-6.682078365048D+01 PE=-7.273541018067D+01 EE= 6.153107141516D+01
 Annihilation of the first spin contaminant:
 S**2 before annihilation     0.0000,   after     0.0000
 Leave Link  502 at Fri Sep  6 10:58:53 2024, MaxMem=  1073741824 cpu:               0.3 elap:               0.0
 (Enter /Users/asuyarger/Applications/G16/g16/l601.exe)
 Copying SCF densities to generalized density rwf, IOpCl= 1 IROHF=0.

 **********************************************************************

            Population analysis using the SCF density.

 **********************************************************************

 Orbital symmetries:
 Alpha Orbitals:
       Occupied  (A1) (B2) (A1) (B1) (A1) (B2) (A2) (B2) (A1) (B1)
       Virtual   (A1) (B2) (B1) (A1)
 Beta  Orbitals:
       Occupied  (A1) (B2) (A1) (B1) (A1) (B2) (A2) (B2) (A1) (B1)
       Virtual   (A1) (B2) (B1) (A1)
 The electronic state is 1-A1.
 Alpha  occ. eigenvalues --   -1.54266  -1.54059  -0.93943  -0.68529  -0.67030
 Alpha  occ. eigenvalues --   -0.65897  -0.60563  -0.57044  -0.54398  -0.48974
 Alpha virt. eigenvalues --    0.09486   0.09816   0.16916   0.17294
  Beta  occ. eigenvalues --   -1.54266  -1.54059  -0.93943  -0.68529  -0.67030
  Beta  occ. eigenvalues --   -0.65897  -0.60563  -0.57044  -0.54398  -0.48974
  Beta virt. eigenvalues --    0.09486   0.09816   0.16916   0.17294
     Alpha Molecular Orbital Coefficients:
                           1         2         3         4         5
                        (A1)--O   (B2)--O   (A1)--O   (B1)--O   (A1)--O
     Eigenvalues --    -1.54266  -1.54059  -0.93943  -0.68529  -0.67030
   1 1   C  1S          0.16949  -0.00000   0.73255  -0.00000  -0.02959
   2        1PX         0.00000   0.00000   0.00000   0.50240  -0.00000
   3        1PY         0.00000   0.19038   0.00000  -0.00000   0.00000
   4        1PZ        -0.12714   0.00000   0.09113   0.00000   0.49209
   5 2   H  1S          0.04539  -0.00000   0.36212  -0.25048   0.16135
   6 3   H  1S          0.04539  -0.00000   0.36212   0.25048   0.16135
   7 4   F  1S          0.68826   0.69355  -0.12262   0.00000   0.06026
   8        1PX         0.00000   0.00000   0.00000   0.55772  -0.00000
   9        1PY        -0.03801  -0.01669  -0.21444   0.00000   0.52660
  10        1PZ         0.01873   0.02435   0.18809   0.00000   0.26742
  11 5   F  1S          0.68826  -0.69355  -0.12262   0.00000   0.06026
  12        1PX         0.00000  -0.00000   0.00000   0.55772  -0.00000
  13        1PY         0.03801  -0.01669   0.21444  -0.00000  -0.52660
  14        1PZ         0.01873  -0.02435   0.18809   0.00000   0.26742
                           6         7         8         9        10
                        (B2)--O   (A2)--O   (B2)--O   (A1)--O   (B1)--O
     Eigenvalues --    -0.65897  -0.60563  -0.57044  -0.54398  -0.48974
   1 1   C  1S         -0.00000   0.00000   0.00000  -0.05301   0.00000
   2        1PX         0.00000  -0.00000   0.00000  -0.00000   0.55511
   3        1PY         0.50360   0.00000  -0.30243  -0.00000   0.00000
   4        1PZ        -0.00000   0.00000   0.00000  -0.42226   0.00000
   5 2   H  1S         -0.00000   0.00000  -0.00000  -0.23217  -0.40111
   6 3   H  1S         -0.00000  -0.00000   0.00000  -0.23217   0.40111
   7 4   F  1S         -0.09242  -0.00000   0.04820  -0.03504   0.00000
   8        1PX        -0.00000   0.70711  -0.00000   0.00000  -0.43016
   9        1PY        -0.09921   0.00000   0.62800  -0.03091  -0.00000
  10        1PZ         0.59566   0.00000   0.23992   0.59444   0.00000
  11 5   F  1S          0.09242   0.00000  -0.04820  -0.03504   0.00000
  12        1PX         0.00000  -0.70711   0.00000   0.00000  -0.43016
  13        1PY        -0.09921   0.00000   0.62800   0.03091   0.00000
  14        1PZ        -0.59566  -0.00000  -0.23992   0.59444   0.00000
                          11        12        13        14
                        (A1)--V   (B2)--V   (B1)--V   (A1)--V
     Eigenvalues --     0.09486   0.09816   0.16916   0.17294
   1 1   C  1S         -0.43300   0.00000   0.00000  -0.49343
   2        1PX        -0.00000  -0.00000   0.66291   0.00000
   3        1PY         0.00000   0.78656   0.00000  -0.00000
   4        1PZ         0.60998  -0.00000   0.00000  -0.42779
   5 2   H  1S          0.03909  -0.00000   0.52571   0.53417
   6 3   H  1S          0.03909  -0.00000  -0.52571   0.53417
   7 4   F  1S          0.07870  -0.09016   0.00000  -0.01455
   8        1PX         0.00000   0.00000  -0.06247  -0.00000
   9        1PY        -0.41745   0.30903  -0.00000   0.00665
  10        1PZ         0.19554  -0.29502  -0.00000   0.03418
  11 5   F  1S          0.07870   0.09016   0.00000  -0.01455
  12        1PX         0.00000   0.00000  -0.06247  -0.00000
  13        1PY         0.41745   0.30903   0.00000  -0.00665
  14        1PZ         0.19554   0.29502  -0.00000   0.03418
     Beta Molecular Orbital Coefficients:
                           1         2         3         4         5
                        (A1)--O   (B2)--O   (A1)--O   (B1)--O   (A1)--O
     Eigenvalues --    -1.54266  -1.54059  -0.93943  -0.68529  -0.67030
   1 1   C  1S          0.16949  -0.00000   0.73255  -0.00000  -0.02959
   2        1PX         0.00000   0.00000   0.00000   0.50240  -0.00000
   3        1PY         0.00000   0.19038   0.00000  -0.00000   0.00000
   4        1PZ        -0.12714   0.00000   0.09113   0.00000   0.49209
   5 2   H  1S          0.04539  -0.00000   0.36212  -0.25048   0.16135
   6 3   H  1S          0.04539  -0.00000   0.36212   0.25048   0.16135
   7 4   F  1S          0.68826   0.69355  -0.12262   0.00000   0.06026
   8        1PX         0.00000   0.00000   0.00000   0.55772  -0.00000
   9        1PY        -0.03801  -0.01669  -0.21444   0.00000   0.52660
  10        1PZ         0.01873   0.02435   0.18809   0.00000   0.26742
  11 5   F  1S          0.68826  -0.69355  -0.12262   0.00000   0.06026
  12        1PX         0.00000  -0.00000   0.00000   0.55772  -0.00000
  13        1PY         0.03801  -0.01669   0.21444  -0.00000  -0.52660
  14        1PZ         0.01873  -0.02435   0.18809   0.00000   0.26742
                           6         7         8         9        10
                        (B2)--O   (A2)--O   (B2)--O   (A1)--O   (B1)--O
     Eigenvalues --    -0.65897  -0.60563  -0.57044  -0.54398  -0.48974
   1 1   C  1S         -0.00000   0.00000   0.00000  -0.05301   0.00000
   2        1PX         0.00000  -0.00000   0.00000  -0.00000   0.55511
   3        1PY         0.50360   0.00000  -0.30243  -0.00000   0.00000
   4        1PZ        -0.00000   0.00000   0.00000  -0.42226   0.00000
   5 2   H  1S         -0.00000   0.00000  -0.00000  -0.23217  -0.40111
   6 3   H  1S         -0.00000  -0.00000   0.00000  -0.23217   0.40111
   7 4   F  1S         -0.09242  -0.00000   0.04820  -0.03504   0.00000
   8        1PX        -0.00000   0.70711  -0.00000   0.00000  -0.43016
   9        1PY        -0.09921   0.00000   0.62800  -0.03091  -0.00000
  10        1PZ         0.59566   0.00000   0.23992   0.59444   0.00000
  11 5   F  1S          0.09242   0.00000  -0.04820  -0.03504   0.00000
  12        1PX         0.00000  -0.70711   0.00000   0.00000  -0.43016
  13        1PY        -0.09921   0.00000   0.62800   0.03091   0.00000
  14        1PZ        -0.59566  -0.00000  -0.23992   0.59444   0.00000
                          11        12        13        14
                        (A1)--V   (B2)--V   (B1)--V   (A1)--V
     Eigenvalues --     0.09486   0.09816   0.16916   0.17294
   1 1   C  1S         -0.43300   0.00000   0.00000  -0.49343
   2        1PX        -0.00000  -0.00000   0.66291   0.00000
   3        1PY         0.00000   0.78656   0.00000  -0.00000
   4        1PZ         0.60998  -0.00000   0.00000  -0.42779
   5 2   H  1S          0.03909  -0.00000   0.52571   0.53417
   6 3   H  1S          0.03909  -0.00000  -0.52571   0.53417
   7 4   F  1S          0.07870  -0.09016   0.00000  -0.01455
   8        1PX         0.00000   0.00000  -0.06247  -0.00000
   9        1PY        -0.41745   0.30903  -0.00000   0.00665
  10        1PZ         0.19554  -0.29502  -0.00000   0.03418
  11 5   F  1S          0.07870   0.09016   0.00000  -0.01455
  12        1PX         0.00000   0.00000  -0.06247  -0.00000
  13        1PY         0.41745   0.30903   0.00000  -0.00665
  14        1PZ         0.19554   0.29502  -0.00000   0.03418
     Alpha Density Matrix:
                           1         2         3         4         5
   1 1   C  1S          0.56904
   2        1PX         0.00000   0.56055
   3        1PY         0.00000   0.00000   0.38132
   4        1PZ         0.05303   0.00000   0.00000   0.44493
   5 2   H  1S          0.28050  -0.34850   0.00000   0.20467   0.43676
   6 3   H  1S          0.28050   0.34850  -0.00000   0.20467  -0.01050
   7 4   F  1S          0.02690   0.00000   0.07092  -0.05423   0.00470
   8        1PX        -0.00000   0.04141  -0.00000  -0.00000   0.03284
   9        1PY        -0.17747  -0.00000  -0.24307   0.25748   0.01277
  10        1PZ         0.10154   0.00000   0.23205  -0.10465  -0.02590
  11 5   F  1S          0.02690  -0.00000  -0.07092  -0.05423   0.00470
  12        1PX        -0.00000   0.04141  -0.00000  -0.00000   0.03284
  13        1PY         0.17747   0.00000  -0.24307  -0.25748  -0.01277
  14        1PZ         0.10154   0.00000  -0.23205  -0.10465  -0.02590
                           6         7         8         9        10
   6 3   H  1S          0.43676
   7 4   F  1S          0.00470   0.98547
   8        1PX        -0.03284  -0.00000   0.99610
   9        1PY         0.01277   0.06081   0.00000   0.73019
  10        1PZ        -0.02590  -0.04149  -0.00000   0.17257   0.87356
  11 5   F  1S          0.00470   0.00172  -0.00000   0.00509   0.01171
  12        1PX        -0.03284  -0.00000  -0.00390   0.00000  -0.00000
  13        1PY        -0.01277  -0.00509  -0.00000   0.07881   0.00977
  14        1PZ        -0.02590   0.01171  -0.00000  -0.00977   0.04763
                          11        12        13        14
  11 5   F  1S          0.98547
  12        1PX        -0.00000   0.99610
  13        1PY        -0.06081  -0.00000   0.73019
  14        1PZ        -0.04149  -0.00000  -0.17257   0.87356
     Beta Density Matrix:
                           1         2         3         4         5
   1 1   C  1S          0.56904
   2        1PX         0.00000   0.56055
   3        1PY         0.00000   0.00000   0.38132
   4        1PZ         0.05303   0.00000   0.00000   0.44493
   5 2   H  1S          0.28050  -0.34850   0.00000   0.20467   0.43676
   6 3   H  1S          0.28050   0.34850  -0.00000   0.20467  -0.01050
   7 4   F  1S          0.02690   0.00000   0.07092  -0.05423   0.00470
   8        1PX        -0.00000   0.04141  -0.00000  -0.00000   0.03284
   9        1PY        -0.17747  -0.00000  -0.24307   0.25748   0.01277
  10        1PZ         0.10154   0.00000   0.23205  -0.10465  -0.02590
  11 5   F  1S          0.02690  -0.00000  -0.07092  -0.05423   0.00470
  12        1PX        -0.00000   0.04141  -0.00000  -0.00000   0.03284
  13        1PY         0.17747   0.00000  -0.24307  -0.25748  -0.01277
  14        1PZ         0.10154   0.00000  -0.23205  -0.10465  -0.02590
                           6         7         8         9        10
   6 3   H  1S          0.43676
   7 4   F  1S          0.00470   0.98547
   8        1PX        -0.03284  -0.00000   0.99610
   9        1PY         0.01277   0.06081   0.00000   0.73019
  10        1PZ        -0.02590  -0.04149  -0.00000   0.17257   0.87356
  11 5   F  1S          0.00470   0.00172  -0.00000   0.00509   0.01171
  12        1PX        -0.03284  -0.00000  -0.00390   0.00000  -0.00000
  13        1PY        -0.01277  -0.00509  -0.00000   0.07881   0.00977
  14        1PZ        -0.02590   0.01171  -0.00000  -0.00977   0.04763
                          11        12        13        14
  11 5   F  1S          0.98547
  12        1PX        -0.00000   0.99610
  13        1PY        -0.06081  -0.00000   0.73019
  14        1PZ        -0.04149  -0.00000  -0.17257   0.87356
    Full Mulliken population analysis:
                           1         2         3         4         5
   1 1   C  1S          1.13809
   2        1PX         0.00000   1.12110
   3        1PY         0.00000   0.00000   0.76264
   4        1PZ         0.00000   0.00000   0.00000   0.88985
   5 2   H  1S          0.00000   0.00000   0.00000   0.00000   0.87352
   6 3   H  1S          0.00000   0.00000   0.00000   0.00000   0.00000
   7 4   F  1S          0.00000   0.00000   0.00000   0.00000   0.00000
   8        1PX         0.00000   0.00000   0.00000   0.00000   0.00000
   9        1PY         0.00000   0.00000   0.00000   0.00000   0.00000
  10        1PZ         0.00000   0.00000   0.00000   0.00000   0.00000
  11 5   F  1S          0.00000   0.00000   0.00000   0.00000   0.00000
  12        1PX         0.00000   0.00000   0.00000   0.00000   0.00000
  13        1PY         0.00000   0.00000   0.00000   0.00000   0.00000
  14        1PZ         0.00000   0.00000   0.00000   0.00000   0.00000
                           6         7         8         9        10
   6 3   H  1S          0.87352
   7 4   F  1S          0.00000   1.97093
   8        1PX         0.00000   0.00000   1.99219
   9        1PY         0.00000   0.00000   0.00000   1.46039
  10        1PZ         0.00000   0.00000   0.00000   0.00000   1.74712
  11 5   F  1S          0.00000   0.00000   0.00000   0.00000   0.00000
  12        1PX         0.00000   0.00000   0.00000   0.00000   0.00000
  13        1PY         0.00000   0.00000   0.00000   0.00000   0.00000
  14        1PZ         0.00000   0.00000   0.00000   0.00000   0.00000
                          11        12        13        14
  11 5   F  1S          1.97093
  12        1PX         0.00000   1.99219
  13        1PY         0.00000   0.00000   1.46039
  14        1PZ         0.00000   0.00000   0.00000   1.74712
     Gross orbital populations:
                         Total     Alpha     Beta      Spin
   1 1   C  1S          1.13809   0.56904   0.56904   0.00000
   2        1PX         1.12110   0.56055   0.56055   0.00000
   3        1PY         0.76264   0.38132   0.38132   0.00000
   4        1PZ         0.88985   0.44493   0.44493   0.00000
   5 2   H  1S          0.87352   0.43676   0.43676   0.00000
   6 3   H  1S          0.87352   0.43676   0.43676   0.00000
   7 4   F  1S          1.97093   0.98547   0.98547   0.00000
   8        1PX         1.99219   0.99610   0.99610   0.00000
   9        1PY         1.46039   0.73019   0.73019   0.00000
  10        1PZ         1.74712   0.87356   0.87356   0.00000
  11 5   F  1S          1.97093   0.98547   0.98547   0.00000
  12        1PX         1.99219   0.99610   0.99610   0.00000
  13        1PY         1.46039   0.73019   0.73019   0.00000
  14        1PZ         1.74712   0.87356   0.87356   0.00000
          Condensed to atoms (all electrons):
               1          2          3          4          5
     1  C    3.911678   0.000000   0.000000   0.000000   0.000000
     2  H    0.000000   0.873523   0.000000   0.000000   0.000000
     3  H    0.000000   0.000000   0.873523   0.000000   0.000000
     4  F    0.000000   0.000000   0.000000   7.170638   0.000000
     5  F    0.000000   0.000000   0.000000   0.000000   7.170638
          Atomic-Atomic Spin Densities.
               1          2          3          4          5
     1  C    0.000000   0.000000   0.000000   0.000000   0.000000
     2  H    0.000000   0.000000   0.000000   0.000000   0.000000
     3  H    0.000000   0.000000   0.000000   0.000000   0.000000
     4  F    0.000000   0.000000   0.000000   0.000000   0.000000
     5  F    0.000000   0.000000   0.000000   0.000000   0.000000
 Mulliken charges and spin densities:
               1          2
     1  C    0.088322   0.000000
     2  H    0.126477   0.000000
     3  H    0.126477   0.000000
     4  F   -0.170638   0.000000
     5  F   -0.170638   0.000000
 Sum of Mulliken charges =   0.00000   0.00000
 Mulliken charges and spin densities with hydrogens summed into heavy atoms:
               1          2
     1  C    0.341275   0.000000
     4  F   -0.170638   0.000000
     5  F   -0.170638   0.000000
 Charge=              0.0000 electrons
 Dipole moment (field-independent basis, Debye):
    X=              0.0000    Y=             -0.0000    Z=              1.8180  Tot=              1.8180
 N-N= 7.786240624368D+01 E-N=-7.273541019600D+01  KE=-6.682078365048D+01
 Symmetry A1   KE=-2.650488803934D+01
 Symmetry A2   KE=-7.257779462234D+00
 Symmetry B1   KE=-9.507633617338D+00
 Symmetry B2   KE=-2.355048253157D+01
 Symmetry A1   SP= 0.000000000000D+00
 Symmetry A2   SP= 0.000000000000D+00
 Symmetry B1   SP= 0.000000000000D+00
 Symmetry B2   SP= 0.000000000000D+00
 StAtR1:  DoIntr=F IAtCor=3 NETot=      20 Failed=F Sum=  6.00D+00 SumC=  0.00D+00
 There are a total of      112650 grid points.
 ElSum from          density=       22.8498855414
 ElSum from atomic densities=       26.0000009884

 Hirshfeld populations at iteration   1 (CX, CA, CB, DipXYZ):
               1          2          3          4          5          6
     1  C    0.000000   2.093939   2.093939   0.000000   0.000000  -1.367547
     2  H    0.000002   0.603021   0.603021   0.085595   0.000000  -0.273066
     3  H    0.000002   0.603021   0.603021  -0.085595  -0.000000  -0.273066
     4  F    0.000001   4.062481   4.062481  -0.000000   0.544061  -0.627184
     5  F    0.000001   4.062481   4.062481   0.000000  -0.544061  -0.627184
       Tot   0.000006  11.424943  11.424943   0.000000   0.000000  -3.168047

 Dip from Atomic Chgs              0.000000  -0.000000   0.182738
         Total Dipole              0.000000   0.000000  -2.985309

 Hirshfeld charges, spin densities, dipoles, and CM5 charges using IRadAn=      5:
              Q-H        S-H        Dx         Dy         Dz        Q-CM5   
     1  C   -0.187878   0.000000   0.000000   0.000000  -1.367547  -0.251678
     2  H   -0.206041   0.000000   0.085595   0.000000  -0.273066  -0.145954
     3  H   -0.206041   0.000000  -0.085595  -0.000000  -0.273066  -0.145954
     4  F   -1.124962   0.000000  -0.000000   0.544061  -0.627184  -1.153150
     5  F   -1.124962   0.000000   0.000000  -0.544061  -0.627184  -1.153150
       Tot  -2.849886   0.000000   0.000000   0.000000  -3.168047  -2.849886
 Hirshfeld charges and spin densities with hydrogens summed into heavy atoms:
              Q-H        S-H       Q-CM5   
     1  C   -0.599961   0.000000  -0.543585
     4  F   -1.124962   0.000000  -1.153150
     5  F   -1.124962   0.000000  -1.153150
 
 EQQ= 0.000000000000E+00 EQD= 0.000000000000E+00 EDD= 0.209900846021    
 EQQ+QD+DD= 0.209900846021    
 
 Orbital energies and kinetic energies (alpha):
                                 1                 2
   1         (A1)--O          -1.542663         -5.059440
   2         (B2)--O          -1.540587         -5.092040
   3         (A1)--O          -0.939434         -2.199124
   4         (B1)--O          -0.685286         -2.823607
   5         (A1)--O          -0.670296         -3.075960
   6         (B2)--O          -0.658968         -3.227247
   7         (A2)--O          -0.605634         -3.628890
   8         (B2)--O          -0.570440         -3.455954
   9         (A1)--O          -0.543976         -2.917920
  10         (B1)--O          -0.489742         -1.930210
  11         (A1)--V           0.094856         -2.257545
  12         (B2)--V           0.098157         -2.094493
  13         (B1)--V           0.169160         -0.706981
  14         (A1)--V           0.172943         -0.724362
 Orbital energies and kinetic energies (beta):
                                 1                 2
   1         (A1)--O          -1.542663         -5.059440
   2         (B2)--O          -1.540587         -5.092040
   3         (A1)--O          -0.939434         -2.199124
   4         (B1)--O          -0.685286         -2.823607
   5         (A1)--O          -0.670296         -3.075960
   6         (B2)--O          -0.658968         -3.227247
   7         (A2)--O          -0.605634         -3.628890
   8         (B2)--O          -0.570440         -3.455954
   9         (A1)--O          -0.543976         -2.917920
  10         (B1)--O          -0.489742         -1.930210
  11         (A1)--V           0.094856         -2.257545
  12         (B2)--V           0.098157         -2.094493
  13         (B1)--V           0.169160         -0.706981
  14         (A1)--V           0.172943         -0.724362
 Total kinetic energy from orbitals=-6.682078365048D+01
 Leave Link  601 at Fri Sep  6 10:58:53 2024, MaxMem=  1073741824 cpu:               0.4 elap:               0.1
 (Enter /Users/asuyarger/Applications/G16/g16/l607.exe)
 ******************************Gaussian NBO Version 3.1******************************
             N A T U R A L   A T O M I C   O R B I T A L   A N D
          N A T U R A L   B O N D   O R B I T A L   A N A L Y S I S
 ******************************Gaussian NBO Version 3.1******************************
       /RESON  / : Allow strongly delocalized NBO set

 Analyzing the SCF density

 Job title: R32 uPM6 Opt Freq - Full - NBO                                  

 Storage needed:       682 in NPA,       855 in NBO (1073741649 available)


 NATURAL POPULATIONS:  Natural atomic orbital occupancies 
                                                          
   NAO  Atom  No  lang   Type(AO)    Occupancy
 --------------------------------------------
     1    C    1  S      Val( 2S)     1.13809
     2    C    1  px     Val( 2p)     1.12110
     3    C    1  py     Val( 2p)     0.76264
     4    C    1  pz     Val( 2p)     0.88985

     5    H    2  S      Val( 1S)     0.87352

     6    H    3  S      Val( 1S)     0.87352

     7    F    4  S      Val( 2S)     1.97093
     8    F    4  px     Val( 2p)     1.99219
     9    F    4  py     Val( 2p)     1.46039
    10    F    4  pz     Val( 2p)     1.74712

    11    F    5  S      Val( 2S)     1.97093
    12    F    5  px     Val( 2p)     1.99219
    13    F    5  py     Val( 2p)     1.46039
    14    F    5  pz     Val( 2p)     1.74712

 [  6 electrons found in the effective core potential]


 Summary of Natural Population Analysis:                  
                                                          
                                       Natural Population 
                Natural  -----------------------------------------------
    Atom  No    Charge         Core      Valence    Rydberg      Total
 -----------------------------------------------------------------------
      C    1    0.08832      2.00000     3.91168    0.00000     5.91168
      H    2    0.12648      0.00000     0.87352    0.00000     0.87352
      H    3    0.12648      0.00000     0.87352    0.00000     0.87352
      F    4   -0.17064      2.00000     7.17064    0.00000     9.17064
      F    5   -0.17064      2.00000     7.17064    0.00000     9.17064
 =======================================================================
   * Total *    0.00000      6.00000    20.00000    0.00000    26.00000

                                 Natural Population      
 --------------------------------------------------------
   Effective Core             6.00000
   Valence                   20.00000 (100.0000% of  20)
   Natural Minimal Basis     26.00000 (100.0000% of  26)
   Natural Rydberg Basis      0.00000 (  0.0000% of  26)
 --------------------------------------------------------

    Atom  No          Natural Electron Configuration
 ----------------------------------------------------------------------------
      C    1      [core]2S( 1.14)2p( 2.77)
      H    2            1S( 0.87)
      H    3            1S( 0.87)
      F    4      [core]2S( 1.97)2p( 5.20)
      F    5      [core]2S( 1.97)2p( 5.20)


 ***************************************************
 *******         Alpha spin orbitals         *******
 ***************************************************


 NATURAL POPULATIONS:  Natural atomic orbital occupancies 
                                                          
   NAO  Atom  No  lang   Type(AO)    Occupancy      Energy
 ----------------------------------------------------------
     1    C    1  S      Val( 2S)     0.56904      -0.49067
     2    C    1  px     Val( 2p)     0.56055      -0.24954
     3    C    1  py     Val( 2p)     0.38132      -0.21441
     4    C    1  pz     Val( 2p)     0.44493      -0.22510

     5    H    2  S      Val( 1S)     0.43676      -0.19869

     6    H    3  S      Val( 1S)     0.43676      -0.19869

     7    F    4  S      Val( 2S)     0.98547      -1.49455
     8    F    4  px     Val( 2p)     0.99610      -0.60594
     9    F    4  py     Val( 2p)     0.73019      -0.43780
    10    F    4  pz     Val( 2p)     0.87356      -0.52911

    11    F    5  S      Val( 2S)     0.98547      -1.49455
    12    F    5  px     Val( 2p)     0.99610      -0.60594
    13    F    5  py     Val( 2p)     0.73019      -0.43780
    14    F    5  pz     Val( 2p)     0.87356      -0.52911

 [  3 electrons found in the effective core potential]


 Summary of Natural Population Analysis:                  
                                                          
                                       Natural Population 
                Natural  -----------------------------------------------
    Atom  No    Charge         Core      Valence    Rydberg      Total
 -----------------------------------------------------------------------
      C    1    0.04416      1.00000     1.95584    0.00000     2.95584
      H    2    0.06324      0.00000     0.43676    0.00000     0.43676
      H    3    0.06324      0.00000     0.43676    0.00000     0.43676
      F    4   -0.08532      1.00000     3.58532    0.00000     4.58532
      F    5   -0.08532      1.00000     3.58532    0.00000     4.58532
 =======================================================================
   * Total *    0.00000      3.00000    10.00000    0.00000    13.00000

                                 Natural Population      
 --------------------------------------------------------
   Effective Core             3.00000
   Valence                   10.00000 (100.0000% of  10)
   Natural Minimal Basis     13.00000 (100.0000% of  13)
   Natural Rydberg Basis      0.00000 (  0.0000% of  13)
 --------------------------------------------------------

    Atom  No          Natural Electron Configuration
 ----------------------------------------------------------------------------
      C    1      [core]2S( 0.57)2p( 1.39)
      H    2            1S( 0.44)
      H    3            1S( 0.44)
      F    4      [core]2S( 0.99)2p( 2.60)
      F    5      [core]2S( 0.99)2p( 2.60)


 NATURAL BOND ORBITAL ANALYSIS, alpha spin orbitals:

                       Occupancies       Lewis Structure    Low   High
           Occ.    -------------------  -----------------   occ   occ
  Cycle   Thresh.   Lewis   Non-Lewis     CR  BD  3C  LP    (L)   (NL)   Dev
 =============================================================================
   1(1)    0.90    12.96245   0.03755      0   4   0   6     0      0    0.01
 -----------------------------------------------------------------------------

 Structure accepted: No low occupancy Lewis orbitals

           --- Apparent excited state configuration ---
 The following "inverted" NBO labels reflect the actual hybrid overlap:

                 NBO  11 has been relabelled BD 

                 NBO  12 has been relabelled BD 

                 NBO  13 has been relabelled BD 

                 NBO  14 has been relabelled BD 

                 NBO  10 has been relabelled LP*

                 NBO   7 has been relabelled LP*

                 NBO   9 has been relabelled LP*

                 NBO   6 has been relabelled LP*

 --------------------------------------------------------
   Effective Core            3.00000
   Valence Lewis             6.03042 ( 60.304% of  10)
  ==================       ============================
   Total Lewis               9.03042 ( 69.465% of  13)
  -----------------------------------------------------
   Valence non-Lewis         3.96958 ( 30.535% of  13)
   Rydberg non-Lewis         0.00000 (  0.000% of  13)
  ==================       ============================
   Total non-Lewis           3.96958 ( 30.535% of  13)
 --------------------------------------------------------


       (Occupancy)   Bond orbital/ Coefficients/ Hybrids
 ---------------------------------------------------------------------------------
     1. (0.99846) BD ( 1) C   1 - H   2  
                ( 56.59%)   0.7523* C   1 s( 31.74%)p 2.15( 68.26%)
                                            0.5634 -0.7071  0.0000  0.4273
                ( 43.41%)   0.6588* H   2 s(100.00%)
                                            1.0000
     2. (0.99846) BD ( 1) C   1 - H   3  
                ( 56.59%)   0.7523* C   1 s( 31.74%)p 2.15( 68.26%)
                                            0.5634  0.7071  0.0000  0.4273
                ( 43.41%)   0.6588* H   3 s(100.00%)
                                            1.0000
     3. (0.99836) BD ( 1) C   1 - F   4  
                ( 40.33%)   0.6350* C   1 s( 18.26%)p 4.48( 81.74%)
                                            0.4273 -0.0000  0.7071 -0.5634
                ( 59.67%)   0.7725* F   4 s(  3.54%)p27.29( 96.46%)
                                            0.1880  0.0000 -0.8167  0.5456
     4. (0.99836) BD ( 1) C   1 - F   5  
                ( 40.33%)   0.6350* C   1 s( 18.26%)p 4.48( 81.74%)
                                            0.4273 -0.0000 -0.7071 -0.5634
                ( 59.67%)   0.7725* F   5 s(  3.54%)p27.29( 96.46%)
                                            0.1880  0.0000  0.8167  0.5456
     5. (0.99961) LP ( 1) F   4           s( 96.02%)p 0.04(  3.98%)
                                            0.9799  0.0000  0.1185 -0.1604
     6. (0.99610) LP*( 2) F   4           s(  0.00%)p 1.00(100.00%)
                                            0.0000  1.0000  0.0000  0.0000
     7. (0.98869) LP*( 3) F   4           s(  0.44%)p99.99( 99.56%)
                                            0.0664  0.0000  0.5648  0.8226
     8. (0.99961) LP ( 1) F   5           s( 96.02%)p 0.04(  3.98%)
                                            0.9799  0.0000 -0.1185 -0.1604
     9. (0.99610) LP*( 2) F   5           s(  0.00%)p 1.00(100.00%)
                                            0.0000  1.0000  0.0000  0.0000
    10. (0.98869) LP*( 3) F   5           s(  0.44%)p99.99( 99.56%)
                                            0.0664  0.0000 -0.5648  0.8226
    11. (0.00596) BD ( 1) C   1 - H   2  
                ( 43.41%)   0.6588* C   1 s( 31.74%)p 2.15( 68.26%)
                                           -0.5634  0.7071 -0.0000 -0.4273
                ( 56.59%)   0.7523* H   2 s(100.00%)
                                            1.0000
    12. (0.00596) BD ( 1) C   1 - H   3  
                ( 43.41%)   0.6588* C   1 s( 31.74%)p 2.15( 68.26%)
                                           -0.5634 -0.7071 -0.0000 -0.4273
                ( 56.59%)   0.7523* H   3 s(100.00%)
                                            1.0000
    13. (0.01281) BD ( 1) C   1 - F   4  
                ( 59.67%)   0.7725* C   1 s( 18.26%)p 4.48( 81.74%)
                                            0.4273 -0.0000  0.7071 -0.5634
                ( 40.33%)   0.6350* F   4 s(  3.54%)p27.29( 96.46%)
                                           -0.1880 -0.0000  0.8167 -0.5456
    14. (0.01281) BD ( 1) C   1 - F   5  
                ( 59.67%)   0.7725* C   1 s( 18.26%)p 4.48( 81.74%)
                                            0.4273 -0.0000 -0.7071 -0.5634
                ( 40.33%)   0.6350* F   5 s(  3.54%)p27.29( 96.46%)
                                           -0.1880 -0.0000 -0.8167 -0.5456


 NHO Directionality and "Bond Bending" (deviations from line of nuclear centers)

         [Thresholds for printing:  angular deviation  >  1.0 degree]
                                    hybrid p-character > 25.0%
                                    orbital occupancy  >  0.10e

                                Line of Centers        Hybrid 1              Hybrid 2
                                ---------------  -------------------   ------------------
                NBO               Theta   Phi    Theta   Phi    Dev    Theta   Phi    Dev
 ========================================================================================
     1. BD (   1) C   1 - H   2    54.7  180.0    58.9  180.0   4.1      --     --    --
     2. BD (   1) C   1 - H   3    54.7    0.0    58.9    0.0   4.1      --     --    --
     3. BD (   1) C   1 - F   4   125.3   90.0   128.5   90.0   3.3     56.3  270.0   1.5
     4. BD (   1) C   1 - F   5   125.3  270.0   128.5  270.0   3.3     56.3   90.0   1.5
     6. LP*(   2) F   4             --     --     90.0    0.0   --       --     --    --
     7. LP*(   3) F   4             --     --     34.5   90.0   --       --     --    --
     9. LP*(   2) F   5             --     --     90.0    0.0   --       --     --    --
    10. LP*(   3) F   5             --     --     34.5  270.0   --       --     --    --


 Second Order Perturbation Theory Analysis of Fock Matrix in NBO Basis

     Threshold for printing:   0.25 kcal/mol
                                                                              E(2)  E(j)-E(i) F(i,j)
         Donor NBO (i)                     Acceptor NBO (j)                 kcal/mol   a.u.    a.u. 
 ===================================================================================================

 within unit  1
   1. BD (   1) C   1 - H   2        / 13. BD (   1) C   1 - F   4            0.49    0.78    0.025
   1. BD (   1) C   1 - H   2        / 14. BD (   1) C   1 - F   5            0.49    0.78    0.025
   2. BD (   1) C   1 - H   3        / 13. BD (   1) C   1 - F   4            0.49    0.78    0.025
   2. BD (   1) C   1 - H   3        / 14. BD (   1) C   1 - F   5            0.49    0.78    0.025
   3. BD (   1) C   1 - F   4        / 14. BD (   1) C   1 - F   5            0.50    0.83    0.026
   4. BD (   1) C   1 - F   5        / 13. BD (   1) C   1 - F   4            0.50    0.83    0.026
   6. LP*(   2) F   4                / 11. BD (   1) C   1 - H   2            0.94    0.77    0.034
   6. LP*(   2) F   4                / 12. BD (   1) C   1 - H   3            0.94    0.77    0.034
   7. LP*(   3) F   4                / 14. BD (   1) C   1 - F   5            4.51    0.69    0.071
   9. LP*(   2) F   5                / 11. BD (   1) C   1 - H   2            0.94    0.77    0.034
   9. LP*(   2) F   5                / 12. BD (   1) C   1 - H   3            0.94    0.77    0.034
  10. LP*(   3) F   5                / 13. BD (   1) C   1 - F   4            4.51    0.69    0.071


 Natural Bond Orbitals (Summary):

                                                            Principal Delocalizations
           NBO                        Occupancy    Energy   (geminal,vicinal,remote)
 ====================================================================================
 Molecular unit  1  (CH2F2)
     1. BD (   1) C   1 - H   2          0.99846    -0.69641  6(v),9(v),7(v),10(v),13(g)
                                                    14(g)
     2. BD (   1) C   1 - H   3          0.99846    -0.69641  6(v),9(v),7(v),10(v),13(g)
                                                    14(g)
     3. BD (   1) C   1 - F   4          0.99836    -0.74378  10(v),7(g),14(g)
     4. BD (   1) C   1 - F   5          0.99836    -0.74378  7(v),10(g),13(g)
     5. LP (   1) F   4                  0.99961    -1.45797  7(g)
     6. LP*(   2) F   4                  0.99610    -0.60594  9(r),11(v),12(v)
     7. LP*(   3) F   4                  0.98869    -0.60522  10(r),14(v)
     8. LP (   1) F   5                  0.99961    -1.45797  10(g)
     9. LP*(   2) F   5                  0.99610    -0.60594  6(r),11(v),12(v)
    10. LP*(   3) F   5                  0.98869    -0.60522  7(r),13(v)
    11. BD (   1) C   1 - H   2          0.00596     0.16627   
    12. BD (   1) C   1 - H   3          0.00596     0.16627   
    13. BD (   1) C   1 - F   4          0.01281     0.08710   
    14. BD (   1) C   1 - F   5          0.01281     0.08710   
       -------------------------------
              Total Lewis    9.03042  ( 69.4648%)
        Valence non-Lewis    3.96958  ( 30.5352%)
        Rydberg non-Lewis    0.00000  (  0.0000%)
       -------------------------------
            Total unit  1   13.00000  (100.0000%)
           Charge unit  1    0.00000


 ***************************************************
 *******         Beta  spin orbitals         *******
 ***************************************************


 NATURAL POPULATIONS:  Natural atomic orbital occupancies 
                                                          
   NAO  Atom  No  lang   Type(AO)    Occupancy      Energy
 ----------------------------------------------------------
     1    C    1  S      Val( 2S)     0.56904      -0.49067
     2    C    1  px     Val( 2p)     0.56055      -0.24954
     3    C    1  py     Val( 2p)     0.38132      -0.21441
     4    C    1  pz     Val( 2p)     0.44493      -0.22510

     5    H    2  S      Val( 1S)     0.43676      -0.19869

     6    H    3  S      Val( 1S)     0.43676      -0.19869

     7    F    4  S      Val( 2S)     0.98547      -1.49455
     8    F    4  px     Val( 2p)     0.99610      -0.60594
     9    F    4  py     Val( 2p)     0.73019      -0.43780
    10    F    4  pz     Val( 2p)     0.87356      -0.52911

    11    F    5  S      Val( 2S)     0.98547      -1.49455
    12    F    5  px     Val( 2p)     0.99610      -0.60594
    13    F    5  py     Val( 2p)     0.73019      -0.43780
    14    F    5  pz     Val( 2p)     0.87356      -0.52911

 [  3 electrons found in the effective core potential]


 Summary of Natural Population Analysis:                  
                                                          
                                       Natural Population 
                Natural  -----------------------------------------------
    Atom  No    Charge         Core      Valence    Rydberg      Total
 -----------------------------------------------------------------------
      C    1    0.04416      1.00000     1.95584    0.00000     2.95584
      H    2    0.06324      0.00000     0.43676    0.00000     0.43676
      H    3    0.06324      0.00000     0.43676    0.00000     0.43676
      F    4   -0.08532      1.00000     3.58532    0.00000     4.58532
      F    5   -0.08532      1.00000     3.58532    0.00000     4.58532
 =======================================================================
   * Total *    0.00000      3.00000    10.00000    0.00000    13.00000

                                 Natural Population      
 --------------------------------------------------------
   Effective Core             3.00000
   Valence                   10.00000 (100.0000% of  10)
   Natural Minimal Basis     13.00000 (100.0000% of  13)
   Natural Rydberg Basis      0.00000 (  0.0000% of  13)
 --------------------------------------------------------

    Atom  No          Natural Electron Configuration
 ----------------------------------------------------------------------------
      C    1      [core]2S( 0.57)2p( 1.39)
      H    2            1S( 0.44)
      H    3            1S( 0.44)
      F    4      [core]2S( 0.99)2p( 2.60)
      F    5      [core]2S( 0.99)2p( 2.60)


 NATURAL BOND ORBITAL ANALYSIS, beta spin orbitals:

                       Occupancies       Lewis Structure    Low   High
           Occ.    -------------------  -----------------   occ   occ
  Cycle   Thresh.   Lewis   Non-Lewis     CR  BD  3C  LP    (L)   (NL)   Dev
 =============================================================================
   1(1)    0.90    12.96245   0.03755      0   4   0   6     0      0    0.01
 -----------------------------------------------------------------------------

 Structure accepted: No low occupancy Lewis orbitals

           --- Apparent excited state configuration ---
 The following "inverted" NBO labels reflect the actual hybrid overlap:

                 NBO  11 has been relabelled BD 

                 NBO  12 has been relabelled BD 

                 NBO  13 has been relabelled BD 

                 NBO  14 has been relabelled BD 

                 NBO  10 has been relabelled LP*

                 NBO   7 has been relabelled LP*

                 NBO   9 has been relabelled LP*

                 NBO   6 has been relabelled LP*

 --------------------------------------------------------
   Effective Core            3.00000
   Valence Lewis             6.03042 ( 60.304% of  10)
  ==================       ============================
   Total Lewis               9.03042 ( 69.465% of  13)
  -----------------------------------------------------
   Valence non-Lewis         3.96958 ( 30.535% of  13)
   Rydberg non-Lewis         0.00000 (  0.000% of  13)
  ==================       ============================
   Total non-Lewis           3.96958 ( 30.535% of  13)
 --------------------------------------------------------


       (Occupancy)   Bond orbital/ Coefficients/ Hybrids
 ---------------------------------------------------------------------------------
     1. (0.99846) BD ( 1) C   1 - H   2  
                ( 56.59%)   0.7523* C   1 s( 31.74%)p 2.15( 68.26%)
                                            0.5634 -0.7071  0.0000  0.4273
                ( 43.41%)   0.6588* H   2 s(100.00%)
                                            1.0000
     2. (0.99846) BD ( 1) C   1 - H   3  
                ( 56.59%)   0.7523* C   1 s( 31.74%)p 2.15( 68.26%)
                                            0.5634  0.7071  0.0000  0.4273
                ( 43.41%)   0.6588* H   3 s(100.00%)
                                            1.0000
     3. (0.99836) BD ( 1) C   1 - F   4  
                ( 40.33%)   0.6350* C   1 s( 18.26%)p 4.48( 81.74%)
                                            0.4273 -0.0000  0.7071 -0.5634
                ( 59.67%)   0.7725* F   4 s(  3.54%)p27.29( 96.46%)
                                            0.1880  0.0000 -0.8167  0.5456
     4. (0.99836) BD ( 1) C   1 - F   5  
                ( 40.33%)   0.6350* C   1 s( 18.26%)p 4.48( 81.74%)
                                            0.4273 -0.0000 -0.7071 -0.5634
                ( 59.67%)   0.7725* F   5 s(  3.54%)p27.29( 96.46%)
                                            0.1880  0.0000  0.8167  0.5456
     5. (0.99961) LP ( 1) F   4           s( 96.02%)p 0.04(  3.98%)
                                            0.9799  0.0000  0.1185 -0.1604
     6. (0.99610) LP*( 2) F   4           s(  0.00%)p 1.00(100.00%)
                                            0.0000  1.0000  0.0000  0.0000
     7. (0.98869) LP*( 3) F   4           s(  0.44%)p99.99( 99.56%)
                                            0.0664  0.0000  0.5648  0.8226
     8. (0.99961) LP ( 1) F   5           s( 96.02%)p 0.04(  3.98%)
                                            0.9799  0.0000 -0.1185 -0.1604
     9. (0.99610) LP*( 2) F   5           s(  0.00%)p 1.00(100.00%)
                                            0.0000  1.0000  0.0000  0.0000
    10. (0.98869) LP*( 3) F   5           s(  0.44%)p99.99( 99.56%)
                                            0.0664  0.0000 -0.5648  0.8226
    11. (0.00596) BD ( 1) C   1 - H   2  
                ( 43.41%)   0.6588* C   1 s( 31.74%)p 2.15( 68.26%)
                                           -0.5634  0.7071 -0.0000 -0.4273
                ( 56.59%)   0.7523* H   2 s(100.00%)
                                            1.0000
    12. (0.00596) BD ( 1) C   1 - H   3  
                ( 43.41%)   0.6588* C   1 s( 31.74%)p 2.15( 68.26%)
                                           -0.5634 -0.7071 -0.0000 -0.4273
                ( 56.59%)   0.7523* H   3 s(100.00%)
                                            1.0000
    13. (0.01281) BD ( 1) C   1 - F   4  
                ( 59.67%)   0.7725* C   1 s( 18.26%)p 4.48( 81.74%)
                                            0.4273 -0.0000  0.7071 -0.5634
                ( 40.33%)   0.6350* F   4 s(  3.54%)p27.29( 96.46%)
                                           -0.1880 -0.0000  0.8167 -0.5456
    14. (0.01281) BD ( 1) C   1 - F   5  
                ( 59.67%)   0.7725* C   1 s( 18.26%)p 4.48( 81.74%)
                                            0.4273 -0.0000 -0.7071 -0.5634
                ( 40.33%)   0.6350* F   5 s(  3.54%)p27.29( 96.46%)
                                           -0.1880 -0.0000 -0.8167 -0.5456


 NHO Directionality and "Bond Bending" (deviations from line of nuclear centers)

         [Thresholds for printing:  angular deviation  >  1.0 degree]
                                    hybrid p-character > 25.0%
                                    orbital occupancy  >  0.10e

                                Line of Centers        Hybrid 1              Hybrid 2
                                ---------------  -------------------   ------------------
                NBO               Theta   Phi    Theta   Phi    Dev    Theta   Phi    Dev
 ========================================================================================
     1. BD (   1) C   1 - H   2    54.7  180.0    58.9  180.0   4.1      --     --    --
     2. BD (   1) C   1 - H   3    54.7    0.0    58.9    0.0   4.1      --     --    --
     3. BD (   1) C   1 - F   4   125.3   90.0   128.5   90.0   3.3     56.3  270.0   1.5
     4. BD (   1) C   1 - F   5   125.3  270.0   128.5  270.0   3.3     56.3   90.0   1.5
     6. LP*(   2) F   4             --     --     90.0    0.0   --       --     --    --
     7. LP*(   3) F   4             --     --     34.5   90.0   --       --     --    --
     9. LP*(   2) F   5             --     --     90.0    0.0   --       --     --    --
    10. LP*(   3) F   5             --     --     34.5  270.0   --       --     --    --


 Second Order Perturbation Theory Analysis of Fock Matrix in NBO Basis

     Threshold for printing:   0.25 kcal/mol
                                                                              E(2)  E(j)-E(i) F(i,j)
         Donor NBO (i)                     Acceptor NBO (j)                 kcal/mol   a.u.    a.u. 
 ===================================================================================================

 within unit  1
   1. BD (   1) C   1 - H   2        / 13. BD (   1) C   1 - F   4            0.49    0.78    0.025
   1. BD (   1) C   1 - H   2        / 14. BD (   1) C   1 - F   5            0.49    0.78    0.025
   2. BD (   1) C   1 - H   3        / 13. BD (   1) C   1 - F   4            0.49    0.78    0.025
   2. BD (   1) C   1 - H   3        / 14. BD (   1) C   1 - F   5            0.49    0.78    0.025
   3. BD (   1) C   1 - F   4        / 14. BD (   1) C   1 - F   5            0.50    0.83    0.026
   4. BD (   1) C   1 - F   5        / 13. BD (   1) C   1 - F   4            0.50    0.83    0.026
   6. LP*(   2) F   4                / 11. BD (   1) C   1 - H   2            0.94    0.77    0.034
   6. LP*(   2) F   4                / 12. BD (   1) C   1 - H   3            0.94    0.77    0.034
   7. LP*(   3) F   4                / 14. BD (   1) C   1 - F   5            4.51    0.69    0.071
   9. LP*(   2) F   5                / 11. BD (   1) C   1 - H   2            0.94    0.77    0.034
   9. LP*(   2) F   5                / 12. BD (   1) C   1 - H   3            0.94    0.77    0.034
  10. LP*(   3) F   5                / 13. BD (   1) C   1 - F   4            4.51    0.69    0.071


 Natural Bond Orbitals (Summary):

                                                            Principal Delocalizations
           NBO                        Occupancy    Energy   (geminal,vicinal,remote)
 ====================================================================================
 Molecular unit  1  (CH2F2)
     1. BD (   1) C   1 - H   2          0.99846    -0.69641  6(v),9(v),7(v),10(v),13(g)
                                                    14(g)
     2. BD (   1) C   1 - H   3          0.99846    -0.69641  6(v),9(v),7(v),10(v),13(g)
                                                    14(g)
     3. BD (   1) C   1 - F   4          0.99836    -0.74378  10(v),7(g),14(g)
     4. BD (   1) C   1 - F   5          0.99836    -0.74378  7(v),10(g),13(g)
     5. LP (   1) F   4                  0.99961    -1.45797  7(g)
     6. LP*(   2) F   4                  0.99610    -0.60594  9(r),11(v),12(v)
     7. LP*(   3) F   4                  0.98869    -0.60522  10(r),14(v)
     8. LP (   1) F   5                  0.99961    -1.45797  10(g)
     9. LP*(   2) F   5                  0.99610    -0.60594  6(r),11(v),12(v)
    10. LP*(   3) F   5                  0.98869    -0.60522  7(r),13(v)
    11. BD (   1) C   1 - H   2          0.00596     0.16627   
    12. BD (   1) C   1 - H   3          0.00596     0.16627   
    13. BD (   1) C   1 - F   4          0.01281     0.08710   
    14. BD (   1) C   1 - F   5          0.01281     0.08710   
       -------------------------------
              Total Lewis    9.03042  ( 69.4648%)
        Valence non-Lewis    3.96958  ( 30.5352%)
        Rydberg non-Lewis    0.00000  (  0.0000%)
       -------------------------------
            Total unit  1   13.00000  (100.0000%)
           Charge unit  1    0.00000
 Leave Link  607 at Fri Sep  6 10:58:55 2024, MaxMem=  1073741824 cpu:              12.7 elap:               1.3
 (Enter /Users/asuyarger/Applications/G16/g16/l701.exe)
 ... and contract with generalized density number  0.
 Compute integral first derivatives.
 Leave Link  701 at Fri Sep  6 10:58:55 2024, MaxMem=  1073741824 cpu:               0.3 elap:               0.1
 (Enter /Users/asuyarger/Applications/G16/g16/l702.exe)
 L702 exits ... SP integral derivatives will be done elsewhere.
 Leave Link  702 at Fri Sep  6 10:58:55 2024, MaxMem=  1073741824 cpu:               0.1 elap:               0.0
 (Enter /Users/asuyarger/Applications/G16/g16/l703.exe)
 Integral derivatives from FoFJK, PRISM(SPDF).
 Compute integral first derivatives, UseDBF=F ICtDFT=           0.
 Calling FoFJK, ICntrl=      2127 FMM=F ISym2X=1 I1Cent= 0 IOpClX= 1 NMat=1 NMatS=1 NMatT=0.
 FoFJK:  IHMeth=40 ICntrl=    2127 DoSepK=F KAlg= 0 I1Cent=           0 FoldK=F
 IRaf=         0 NMat=       1 IRICut=       1 DoRegI=T DoRafI=F ISym2E= 1 IDoP0=3 IntGTp=3.
 FoFCou: FMM=F IPFlag=           0 FMFlag=      100000 FMFlg1=         800
         NFxFlg=           0 DoJE=F BraDBF=F KetDBF=F FulRan=T
         wScrn=  0.000000 ICntrl=      2127 IOpCl=  1 I1Cent=           0 NGrid=           0
         NMat0=    1 NMatS0=      1 NMatT0=    0 NMatD0=    1 NMtDS0=    0 NMtDT0=    0
 Petite list used in FoFCou.
 Leave Link  703 at Fri Sep  6 10:58:55 2024, MaxMem=  1073741824 cpu:               0.2 elap:               0.0
 (Enter /Users/asuyarger/Applications/G16/g16/l716.exe)
 Dipole        = 4.63518113D-14-1.77635684D-15 7.15250678D-01
 ***** Axes restored to original set *****
 -------------------------------------------------------------------
 Center     Atomic                   Forces (Hartrees/Bohr)
 Number     Number              X              Y              Z
 -------------------------------------------------------------------
      1        6           0.004277331   -0.003024609   -0.005238685
      2        1           0.004472784   -0.021019773    0.004831290
      3        1           0.004473224    0.014693825   -0.015787963
      4        9          -0.011798632    0.002841482    0.004921340
      5        9          -0.001424707    0.006509074    0.011274018
 -------------------------------------------------------------------
 Cartesian Forces:  Max     0.021019773 RMS     0.009550729
 Leave Link  716 at Fri Sep  6 10:58:55 2024, MaxMem=  1073741824 cpu:               0.1 elap:               0.0
 (Enter /Users/asuyarger/Applications/G16/g16/l103.exe)

 GradGradGradGradGradGradGradGradGradGradGradGradGradGradGradGradGradGrad
 Berny optimization.
 FormGI is forming the generalized inverse of G from B-inverse, IUseBI=4.
 Internal  Forces:  Max     0.022310289 RMS     0.010882913
 Search for a local minimum.
 Step number   1 out of a maximum of   24
 All quantities printed in internal units (Hartrees-Bohrs-Radians)
 RMS Force = .10883D-01 SwitMx=.10000D-02 MixMth= 1
 Mixed Optimization -- RFO/linear search
 Second derivative matrix not updated -- first step.
 The second derivative matrix:
                          R1        R2        R3        R4        A1
           R1           0.37230
           R2           0.00000   0.37230
           R3           0.00000   0.00000   0.55021
           R4           0.00000   0.00000   0.00000   0.55021
           A1           0.00000   0.00000   0.00000   0.00000   0.16000
           A2           0.00000   0.00000   0.00000   0.00000   0.00000
           A3           0.00000   0.00000   0.00000   0.00000   0.00000
           A4           0.00000   0.00000   0.00000   0.00000   0.00000
           A5           0.00000   0.00000   0.00000   0.00000   0.00000
           A6           0.00000   0.00000   0.00000   0.00000   0.00000
           D1           0.00000   0.00000   0.00000   0.00000   0.00000
           D2           0.00000   0.00000   0.00000   0.00000   0.00000
           D3           0.00000   0.00000   0.00000   0.00000   0.00000
           D4           0.00000   0.00000   0.00000   0.00000   0.00000
                          A2        A3        A4        A5        A6
           A2           0.16000
           A3           0.00000   0.16000
           A4           0.00000   0.00000   0.16000
           A5           0.00000   0.00000   0.00000   0.16000
           A6           0.00000   0.00000   0.00000   0.00000   0.25000
           D1           0.00000   0.00000   0.00000   0.00000   0.00000
           D2           0.00000   0.00000   0.00000   0.00000   0.00000
           D3           0.00000   0.00000   0.00000   0.00000   0.00000
           D4           0.00000   0.00000   0.00000   0.00000   0.00000
                          D1        D2        D3        D4
           D1           0.02089
           D2           0.00000   0.02089
           D3           0.00000   0.00000   0.02089
           D4           0.00000   0.00000   0.00000   0.02089
 ITU=  0
     Eigenvalues ---    0.06677   0.06927   0.09532   0.16000   0.21999
     Eigenvalues ---    0.37230   0.37230   0.55021   0.55021
 RFO step:  Lambda=-6.73196798D-03 EMin= 6.67688586D-02
 Linear search not attempted -- first point.
 Iteration  1 RMS(Cart)=  0.05334710 RMS(Int)=  0.00179597
 Iteration  2 RMS(Cart)=  0.00169032 RMS(Int)=  0.00074008
 Iteration  3 RMS(Cart)=  0.00000093 RMS(Int)=  0.00074008
 ITry= 1 IFail=0 DXMaxC= 1.08D-01 DCOld= 1.00D+10 DXMaxT= 3.00D-01 DXLimC= 3.00D+00 Rises=F
 ClnCor:  largest displacement from symmetrization is 3.06D-03 for atom     5.
 Variable       Old X    -DE/DX   Delta X   Delta X   Delta X     New X
                                 (Linear)    (Quad)   (Total)
    R1        2.02201   0.02131   0.00000   0.05622   0.05622   2.07822
    R2        2.02201   0.02131   0.00000   0.05622   0.05622   2.07822
    R3        2.55113   0.00142   0.00000   0.00256   0.00395   2.55508
    R4        2.55113   0.00142   0.00000   0.00256   0.00395   2.55508
    A1        1.91063   0.00044   0.00000   0.05182   0.05080   1.96143
    A2        1.91063   0.00604   0.00000   0.01703   0.01421   1.92484
    A3        1.91063   0.00489   0.00000   0.01343   0.01421   1.92484
    A4        1.91063   0.00604   0.00000   0.01703   0.01421   1.92484
    A5        1.91063   0.00489   0.00000   0.01343   0.01421   1.92484
    A6        1.91063  -0.02231   0.00000  -0.11274  -0.11438   1.79625
    D1        2.09440   0.00794   0.00000   0.08433   0.08220   2.17660
    D2       -2.09440  -0.00654   0.00000  -0.07991  -0.08220  -2.17660
    D3        2.09440  -0.00327   0.00000  -0.03996  -0.04110   2.05329
    D4       -2.09440   0.00327   0.00000   0.03996   0.04110  -2.05329
         Item               Value     Threshold  Converged?
 Maximum Force            0.022310     0.000015     NO 
 RMS     Force            0.010883     0.000010     NO 
 Maximum Displacement     0.108032     0.000060     NO 
 RMS     Displacement     0.054020     0.000040     NO 
 Predicted change in Energy=-3.483083D-03
 Lowest energy point so far.  Saving SCF results.
[...]
 -------------------------------------------------------------------
      1        6           0.000006187   -0.000004375   -0.000007577
      2        1           0.000001414   -0.000001378   -0.000001514
      3        1           0.000001414   -0.000000622   -0.000001950
      4        9          -0.000005429    0.000002862    0.000004956
      5        9          -0.000003586    0.000003513    0.000006085
 -------------------------------------------------------------------
 Cartesian Forces:  Max     0.000007577 RMS     0.000004096
 Force constants in Cartesian coordinates: 
                1             2             3             4             5 
      1  0.508643D+00
      2 -0.591239D-02  0.438882D+00
      3 -0.102385D-01  0.451036D-01  0.490962D+00
      4 -0.485523D-01  0.439658D-01 -0.827447D-03  0.685780D-01
      5  0.480557D-01 -0.189663D+00  0.116738D-01 -0.636679D-01  0.231878D+00
      6 -0.318871D-02  0.183527D-01 -0.389038D-01  0.381606D-02 -0.195421D-02
      7 -0.485541D-01 -0.227010D-01  0.376641D-01  0.591313D-02  0.280667D-02
      8 -0.267909D-01 -0.895946D-01  0.761258D-01 -0.367641D-02 -0.140205D-01
      9  0.400254D-01  0.694469D-01 -0.138971D+00  0.111880D-02  0.657015D-02
     10 -0.509935D-01 -0.393801D-01 -0.682086D-01  0.546263D-02  0.849518D-05
     11 -0.306983D-01 -0.118505D+00 -0.133471D+00 -0.682732D-02 -0.252078D-01
     12 -0.531711D-01 -0.133471D+00 -0.272626D+00 -0.302522D-02 -0.163945D-01
     13 -0.360543D+00  0.240279D-01  0.416108D-01 -0.314014D-01  0.127970D-01
     14  0.153460D-01 -0.411188D-01  0.567345D-03  0.302059D-01 -0.298621D-02
     15  0.265733D-01  0.567530D-03 -0.404627D-01 -0.108225D-02  0.104702D-03
                6             7             8             9            10 
      6  0.433023D-01
      7 -0.262408D-02  0.685804D-01
      8  0.171570D-01  0.351401D-01  0.921373D-01
      9 -0.321653D-03 -0.532327D-01 -0.826313D-01  0.183040D+00
     10  0.130149D-02  0.546274D-02  0.112305D-02  0.658656D-03  0.988748D-01
     11 -0.320001D-01  0.793757D-03  0.763379D-02  0.256665D-02  0.641794D-01
     12 -0.935959D-02 -0.742497D-02 -0.130388D-01 -0.422013D-01  0.111163D+00
     13  0.695196D-03 -0.314022D-01 -0.579583D-02  0.114299D-01 -0.588061D-01
     14 -0.155548D-02 -0.160396D-01  0.384419D-02  0.404762D-02 -0.259308D-01
     15  0.528285D-02  0.256177D-01  0.238729D-02 -0.154675D-02 -0.449149D-01
               11            12            13            14            15 
     11  0.138205D+00
     12  0.173835D+00  0.338936D+00
     13 -0.274477D-01 -0.475422D-01  0.482153D+00
     14 -0.212527D-02 -0.109311D-01 -0.358148D-02  0.423863D-01
     15 -0.109311D-01 -0.147487D-01 -0.619383D-02  0.787190D-02  0.514758D-01
 FormGI is forming the generalized inverse of G from B-inverse, IUseBI=4.
 Force constants in internal coordinates: 
                1             2             3             4             5 
      1  0.253562D+00
      2  0.110859D-01  0.253562D+00
      3  0.221433D-01  0.221433D-01  0.481408D+00
      4  0.221433D-01  0.221433D-01  0.666642D-01  0.481408D+00
      5 -0.561474D-03 -0.561474D-03 -0.389329D-03 -0.490251D-02  0.180613D-01
      6  0.638103D-02 -0.211379D-02  0.226450D-03 -0.239991D-01 -0.100858D-01
      7  0.129149D-01 -0.931169D-02 -0.218103D-01  0.382390D-02 -0.139738D-01
      8 -0.211379D-02  0.638103D-02  0.226450D-03 -0.239991D-01 -0.100858D-01
      9 -0.931169D-02  0.129149D-01 -0.218103D-01  0.382390D-02 -0.139738D-01
     10 -0.818434D-02 -0.818434D-02  0.492980D-01  0.518489D-01  0.314465D-01
     11  0.235747D-02  0.235747D-02 -0.172936D-03 -0.409129D-01  0.862765D-02
     12 -0.187851D-02 -0.187851D-02  0.319636D-01  0.774849D-03 -0.301876D-02
     13  0.857940D-02 -0.104579D-01  0.159818D-01  0.387424D-03 -0.150938D-02
     14  0.104579D-01 -0.857940D-02 -0.159818D-01 -0.387424D-03  0.150938D-02
                6             7             8             9            10 
      6  0.416388D-01
      7 -0.111753D-01  0.888002D-01
      8  0.417090D-02  0.226284D-01  0.416388D-01
      9  0.226284D-01 -0.442594D-01 -0.111753D-01  0.888002D-01
     10 -0.519201D-01 -0.455442D-01 -0.519201D-01 -0.455442D-01  0.180410D+00
     11  0.201001D-01 -0.967101D-02  0.201001D-01 -0.967101D-02 -0.345463D-01
     12  0.468165D-02 -0.141955D-01  0.468165D-02 -0.141955D-01  0.253483D-01
     13  0.166237D-01  0.156576D-02 -0.119421D-01 -0.157612D-01  0.126741D-01
     14  0.119421D-01  0.157612D-01 -0.166237D-01 -0.156576D-02 -0.126741D-01
               11            12            13            14 
     11  0.400685D-01
     12  0.287993D-02  0.243525D-01
     13  0.143996D-02  0.121763D-01  0.260332D-01
     14 -0.143996D-02 -0.121763D-01  0.138569D-01  0.260332D-01
 Leave Link  716 at Fri Sep  6 10:59:02 2024, MaxMem=  1073741824 cpu:               0.2 elap:               0.0
 (Enter /Users/asuyarger/Applications/G16/g16/l103.exe)

 GradGradGradGradGradGradGradGradGradGradGradGradGradGradGradGradGradGrad
 Berny optimization.
 Red2BG is reusing G-inverse.
 Internal  Forces:  Max     0.000012952 RMS     0.000004430
 Search for a local minimum.
 Step number   1 out of a maximum of    2
 All quantities printed in internal units (Hartrees-Bohrs-Radians)
 Second derivative matrix not updated -- analytic derivatives used.
 The second derivative matrix:
                          R1        R2        R3        R4        A1
           R1           0.25356
           R2           0.01109   0.25356
           R3           0.02214   0.02214   0.48141
           R4           0.02214   0.02214   0.06666   0.48141
           A1          -0.00056  -0.00056  -0.00039  -0.00490   0.01806
           A2           0.00638  -0.00211   0.00023  -0.02400  -0.01009
           A3           0.01291  -0.00931  -0.02181   0.00382  -0.01397
           A4          -0.00211   0.00638   0.00023  -0.02400  -0.01009
           A5          -0.00931   0.01291  -0.02181   0.00382  -0.01397
           A6          -0.00818  -0.00818   0.04930   0.05185   0.03145
           D1           0.00236   0.00236  -0.00017  -0.04091   0.00863
           D2          -0.00188  -0.00188   0.03196   0.00077  -0.00302
           D3           0.00858  -0.01046   0.01598   0.00039  -0.00151
           D4           0.01046  -0.00858  -0.01598  -0.00039   0.00151
                          A2        A3        A4        A5        A6
           A2           0.04164
           A3          -0.01118   0.08880
           A4           0.00417   0.02263   0.04164
           A5           0.02263  -0.04426  -0.01118   0.08880
           A6          -0.05192  -0.04554  -0.05192  -0.04554   0.18041
           D1           0.02010  -0.00967   0.02010  -0.00967  -0.03455
           D2           0.00468  -0.01420   0.00468  -0.01420   0.02535
           D3           0.01662   0.00157  -0.01194  -0.01576   0.01267
           D4           0.01194   0.01576  -0.01662  -0.00157  -0.01267
                          D1        D2        D3        D4
           D1           0.04007
           D2           0.00288   0.02435
           D3           0.00144   0.01218   0.02603
           D4          -0.00144  -0.01218   0.01386   0.02603
 ITU=  0
     Eigenvalues ---    0.03591   0.06303   0.06852   0.14061   0.21679
     Eigenvalues ---    0.24925   0.27287   0.42287   0.57593
 Angle between quadratic step and forces=   9.84 degrees.
 Linear search not attempted -- first point.
 Iteration  1 RMS(Cart)=  0.00002622 RMS(Int)=  0.00000000
 Iteration  2 RMS(Cart)=  0.00000000 RMS(Int)=  0.00000000
 ITry= 1 IFail=0 DXMaxC= 5.46D-05 DCOld= 1.00D+10 DXMaxT= 3.00D-01 DXLimC= 3.00D+00 Rises=F
 ClnCor:  largest displacement from symmetrization is 9.84D-11 for atom     5.
 Variable       Old X    -DE/DX   Delta X   Delta X   Delta X     New X
                                 (Linear)    (Quad)   (Total)
    R1        2.08938   0.00000   0.00000   0.00000   0.00000   2.08938
    R2        2.08938   0.00000   0.00000   0.00000   0.00000   2.08938
    R3        2.56423   0.00000   0.00000   0.00001   0.00001   2.56424
    R4        2.56423   0.00000   0.00000   0.00001   0.00001   2.56424
    A1        2.01322  -0.00000   0.00000  -0.00002  -0.00002   2.01320
    A2        1.91253   0.00000   0.00000   0.00002   0.00002   1.91254
    A3        1.91253   0.00000   0.00000   0.00002   0.00002   1.91254
    A4        1.91253   0.00000   0.00000   0.00002   0.00002   1.91254
    A5        1.91253   0.00000   0.00000   0.00002   0.00002   1.91254
    A6        1.78695  -0.00001   0.00000  -0.00006  -0.00006   1.78690
    D1        2.22535   0.00000   0.00000   0.00000   0.00000   2.22535
    D2       -2.22535  -0.00000   0.00000  -0.00000  -0.00000  -2.22535
    D3        2.02892  -0.00000   0.00000  -0.00000  -0.00000   2.02892
    D4       -2.02892   0.00000   0.00000   0.00000   0.00000  -2.02892
         Item               Value     Threshold  Converged?
 Maximum Force            0.000013     0.000015     YES
 RMS     Force            0.000004     0.000010     YES
 Maximum Displacement     0.000055     0.000060     YES
 RMS     Displacement     0.000026     0.000040     YES
 Predicted change in Energy=-5.837537D-10
 Optimization completed.
    -- Stationary point found.
                           ----------------------------
                           !   Optimized Parameters   !
                           ! (Angstroms and Degrees)  !
 --------------------------                            --------------------------
 ! Name  Definition              Value          Derivative Info.                !
 --------------------------------------------------------------------------------
 ! R1    R(1,2)                  1.1057         -DE/DX =    0.0                 !
 ! R2    R(1,3)                  1.1057         -DE/DX =    0.0                 !
 ! R3    R(1,4)                  1.3569         -DE/DX =    0.0                 !
 ! R4    R(1,5)                  1.3569         -DE/DX =    0.0                 !
 ! A1    A(2,1,3)              115.349          -DE/DX =    0.0                 !
 ! A2    A(2,1,4)              109.5797         -DE/DX =    0.0                 !
 ! A3    A(2,1,5)              109.5797         -DE/DX =    0.0                 !
 ! A4    A(3,1,4)              109.5797         -DE/DX =    0.0                 !
 ! A5    A(3,1,5)              109.5797         -DE/DX =    0.0                 !
 ! A6    A(4,1,5)              102.3849         -DE/DX =    0.0                 !
 ! D1    D(2,1,4,3)            127.5032         -DE/DX =    0.0                 !
 ! D2    D(2,1,5,3)           -127.5032         -DE/DX =    0.0                 !
 ! D3    D(2,1,5,4)            116.2484         -DE/DX =    0.0                 !
 ! D4    D(3,1,5,4)           -116.2484         -DE/DX =    0.0                 !
 --------------------------------------------------------------------------------
 GradGradGradGradGradGradGradGradGradGradGradGradGradGradGradGradGradGrad

 Leave Link  103 at Fri Sep  6 10:59:02 2024, MaxMem=  1073741824 cpu:               0.1 elap:               0.0
 (Enter /Users/asuyarger/Applications/G16/g16/l9999.exe)

 ----------------------------------------------------------------------

 Electric dipole moment (input orientation):
 (Debye = 10**-18 statcoulomb cm , SI units = C m)
                  (au)            (Debye)         (10**-30 SI)
   Tot        0.789359D+00      0.200635D+01      0.669247D+01
   x          0.455733D+00      0.115836D+01      0.386386D+01
   y         -0.322260D+00     -0.819103D+00     -0.273223D+01
   z         -0.558161D+00     -0.141870D+01     -0.473229D+01

 Dipole polarizability, Alpha (input orientation).
 (esu units = cm**3 , SI units = C**2 m**2 J**-1)
 Alpha(0;0):
               (au)            (10**-24 esu)      (10**-40 SI)
   iso        0.110486D+02      0.163723D+01      0.182167D+01
   aniso      0.677181D+01      0.100348D+01      0.111652D+01
   xx         0.136463D+02      0.202217D+01      0.224997D+01
   yx         0.787311D+00      0.116668D+00      0.129810D+00
   yy         0.835823D+01      0.123856D+01      0.137809D+01
   zx         0.136381D+01      0.202095D+00      0.224861D+00
   zy         0.241012D+01      0.357143D+00      0.397376D+00
   zz         0.111412D+02      0.165096D+01      0.183694D+01

 First dipole hyperpolarizability, Beta (input orientation).
 ||, _|_  parallel and perpendicular components, (z) with respect to z axis,
 vector components x,y,z.  Values do not include the 1/n! factor of 1/2.
 (esu units = statvolt**-1 cm**4 , SI units = C**3 m**3 J**-2)
 Beta(0;0,0):
               (au)            (10**-30 esu)      (10**-50 SI)
   || (z)    -0.185209D+02     -0.160006D+00     -0.593847D-01
   _|_(z)    -0.617364D+01     -0.533354D-01     -0.197949D-01
   x          0.756106D+02      0.653217D+00      0.242435D+00
   y         -0.534662D+02     -0.461906D+00     -0.171432D+00
   z         -0.926045D+02     -0.800031D+00     -0.296924D+00
   ||         0.261925D+02      0.226283D+00      0.839827D-01
   xxx        0.159229D+02      0.137561D+00      0.510545D-01
   xxy       -0.207348D+01     -0.179132D-01     -0.664831D-02
   yxy        0.727578D+01      0.628570D-01      0.233288D-01
   yyy       -0.179543D+02     -0.155111D+00     -0.575680D-01
   xxz       -0.359145D+01     -0.310273D-01     -0.115155D-01
   yxz       -0.456494D+01     -0.394376D-01     -0.146369D-01
   yyz       -0.681910D+01     -0.589117D-01     -0.218645D-01
   zxz        0.200488D+01      0.173206D-01      0.642836D-02
   zyz        0.220573D+01      0.190558D-01      0.707236D-02
   zzz       -0.204576D+02     -0.176738D+00     -0.655946D-01

 ----------------------------------------------------------------------

 Dipole orientation:
     6         -1.20627918         -1.12920650         -1.56394910
     1         -0.90773846          0.61094509         -0.44669884
     1         -1.50481991         -2.86935810         -0.44669884
     9          0.76313698         -1.46707990         -3.17096857
     9         -3.17569534         -0.79133311         -3.17096857

 Electric dipole moment (dipole orientation):
 (Debye = 10**-18 statcoulomb cm , SI units = C m)
                  (au)            (Debye)         (10**-30 SI)
   Tot        0.789359D+00      0.200635D+01      0.669247D+01
   x          0.000000D+00      0.000000D+00      0.000000D+00
   y          0.000000D+00      0.000000D+00      0.000000D+00
   z          0.789359D+00      0.200635D+01      0.669247D+01

 Dipole polarizability, Alpha (dipole orientation).
 (esu units = cm**3 , SI units = C**2 m**2 J**-1)
 Alpha(0;0):
               (au)            (10**-24 esu)      (10**-40 SI)
   iso        0.110486D+02      0.163723D+01      0.182167D+01
   aniso      0.677181D+01      0.100348D+01      0.111652D+01
   xx         0.145370D+02      0.215416D+01      0.239682D+01
   yx        -0.129875D+01     -0.192454D+00     -0.214134D+00
   yy         0.718957D+01      0.106538D+01      0.118540D+01
   zx         0.000000D+00      0.000000D+00      0.000000D+00
   zy         0.000000D+00      0.000000D+00      0.000000D+00
   zz         0.114192D+02      0.169215D+01      0.188277D+01

 First dipole hyperpolarizability, Beta (dipole orientation).
 ||, _|_  parallel and perpendicular components, (z) with respect to z axis,
 vector components x,y,z.  Values do not include the 1/n! factor of 1/2.
 (esu units = statvolt**-1 cm**4 , SI units = C**3 m**3 J**-2)
 Beta(0;0,0):
               (au)            (10**-30 esu)      (10**-50 SI)
   || (z)     0.261925D+02      0.226283D+00      0.839827D-01
   _|_(z)     0.873084D+01      0.754277D-01      0.279942D-01
   x          0.000000D+00      0.000000D+00      0.000000D+00
   y          0.000000D+00      0.000000D+00      0.000000D+00
   z          0.130963D+03      0.113141D+01      0.419913D+00
   ||         0.261925D+02      0.226283D+00      0.839827D-01
   xxx        0.000000D+00      0.000000D+00      0.000000D+00
   xxy        0.000000D+00      0.000000D+00      0.000000D+00
   yxy        0.000000D+00      0.000000D+00      0.000000D+00
   yyy        0.000000D+00      0.000000D+00      0.000000D+00
   xxz        0.114194D+02      0.986548D-01      0.366148D-01
   yxz        0.986094D+00      0.851908D-02      0.316177D-02
   yyz        0.169980D+02      0.146850D+00      0.545019D-01
   zxz        0.000000D+00      0.000000D+00      0.000000D+00
   zyz        0.000000D+00      0.000000D+00      0.000000D+00
   zzz        0.152367D+02      0.131634D+00      0.488545D-01

 ----------------------------------------------------------------------
 1\1\GINC-JEFFSMACSTUDIO\Freq\UPM6\ZDO\C1H2F2\ROOT\06-Sep-2024\0\\#P Ge
 om=AllCheck Guess=TCheck SCRF=Check GenChk UPM6/ZDO Freq\\R32 uPM6 Opt
  Freq - Full - NBO\\0,1\C,-0.9090041962,0.7889470295,-0.0272870955\H,-
 0.5676741531,-0.2615522998,0.0218057557\H,-0.5676542173,1.3567061278,-
 0.9124960797\F,-0.5366135464,1.4413598786,1.1027331776\F,-2.2633414382
 ,0.8308933381,0.0453371519\\Version=EM64M-G16RevA.03\State=1-A1\HF=-0.
 1668792\S2=0.\S2-1=0.\S2A=0.\RMSD=1.045e-09\RMSF=4.096e-06\ZeroPoint=0
 .0293916\Thermal=0.0325615\Dipole=0.4557327,-0.3222601,-0.5581612\Dipo
 leDeriv=0.7560415,0.1355402,0.2347768,0.1355402,0.2108254,0.2041003,0.
 2347768,0.2041003,0.4465068,0.0374828,-0.057902,-0.0174139,-0.06506,0.
 1959448,-0.0032166,-0.0132814,-0.0149056,0.0366424,0.0374848,0.0138717
 ,-0.0588542,0.0210297,0.0843145,-0.0793537,-0.0629868,-0.0676647,0.148
 2707,-0.3035849,-0.0287769,-0.049845,-0.1023046,-0.2735196,-0.1092264,
 -0.1771987,-0.1092249,-0.3996458,-0.5274185,-0.0627324,-0.1086625,0.01
 07953,-0.2175619,-0.0123025,0.0186912,-0.0123041,-0.2317698\Polar=13.6
 462752,0.7873114,8.3582322,1.3638061,2.4101233,11.1412423\HyperPolar=1
 5.9228925,-2.0734755,7.2757768,-17.9543119,-3.5914485,-4.564944,-6.819
 0996,2.0048756,2.2057262,-20.4576328\PG=C02V [C2(C1),SGV(F2),SGV'(H2)]
 \NImag=0\\0.50864266,-0.00591239,0.43888155,-0.01023852,0.04510363,0.4
 9096246,-0.04855234,0.04396577,-0.00082745,0.06857799,0.04805573,-0.18
 966315,0.01167377,-0.06366788,0.23187765,-0.00318871,0.01835268,-0.038
 90381,0.00381606,-0.00195421,0.04330232,-0.04855408,-0.02270098,0.0376
 6412,0.00591313,0.00280667,-0.00262408,0.06858042,-0.02679094,-0.08959
 458,0.07612580,-0.00367641,-0.01402052,0.01715702,0.03514007,0.0921372
 6,0.04002538,0.06944689,-0.13897064,0.00111880,0.00657015,-0.00032165,
 -0.05323271,-0.08263127,0.18304027,-0.05099352,-0.03938014,-0.06820862
 ,0.00546263,0.00000850,0.00130149,0.00546274,0.00112305,0.00065866,0.0
 9887484,-0.03069825,-0.11850526,-0.13347086,-0.00682732,-0.02520782,-0
 .03200012,0.00079376,0.00763379,0.00256665,0.06417935,0.13820457,-0.05
 317114,-0.13347104,-0.27262600,-0.00302522,-0.01639448,-0.00935959,-0.
 00742497,-0.01303883,-0.04220131,0.11116321,0.17383549,0.33893570,-0.3
 6054327,0.02402792,0.04161078,-0.03140142,0.01279703,0.00069520,-0.031
 40222,-0.00579583,0.01142991,-0.05880611,-0.02744773,-0.04754221,0.482
 15301,0.01534604,-0.04111885,0.00056734,0.03020591,-0.00298621,-0.0015
 5548,-0.01603960,0.00384419,0.00404762,-0.02593085,-0.00212527,-0.0109
 3107,-0.00358148,0.04238629,0.02657331,0.00056753,-0.04046266,-0.00108
 225,0.00010470,0.00528285,0.02561769,0.00238729,-0.00154675,-0.0449148
 9,-0.01093111,-0.01474872,-0.00619383,0.00787190,0.05147580\\-0.000006
 19,0.00000437,0.00000758,-0.00000141,0.00000138,0.00000151,-0.00000141
 ,0.00000062,0.00000195,0.00000543,-0.00000286,-0.00000496,0.00000359,-
 0.00000351,-0.00000609\\\@


 NOT WHAT WE DID SHALL BE THE TEST
 WHEN ACT AND WILL ARE DONE,
 BUT WHAT OUR LORD INFERS WE WOULD-
 HAD WE DIVINER BEEN.
           EMILY DICKINSON  POEMS NO. CLXXV
 Job cpu time:       0 days  0 hours  0 minutes  2.6 seconds.
 Elapsed time:       0 days  0 hours  0 minutes  2.0 seconds.
 File lengths (MBytes):  RWF=      6 Int=      0 D2E=      0 Chk=      2 Scr=      1
 Normal termination of Gaussian 16 at Fri Sep  6 10:59:02 2024.
