 Entering Gaussian System, Link 0=g16
 Input=/Users/asuyarger/Downloads/r32_DFT_B3LPY_apVTZ_Opt_Freq_Full_NBO_Raman.gjf
 Output=/Users/asuyarger/Downloads/r32_DFT_B3LPY_apVTZ_Opt_Freq_Full_NBO_Raman.log
 Initial command:
 /Users/asuyarger/Applications/G16/g16/l1.exe "/Users/asuyarger/Applications/G16/scratch/Gau-92766.inp" -scrdir="/Users/asuyarger/Applications/G16/scratch/"
 Entering Link 1 = /Users/asuyarger/Applications/G16/g16/l1.exe PID=     92767.
  
 Copyright (c) 1988,1990,1992,1993,1995,1998,2003,2009,2016,
            Gaussian, Inc.  All Rights Reserved.
  
 This is part of the Gaussian(R) 16 program.  It is based on
 the Gaussian(R) 09 system (copyright 2009, Gaussian, Inc.),
 the Gaussian(R) 03 system (copyright 2003, Gaussian, Inc.),
 the Gaussian(R) 98 system (copyright 1998, Gaussian, Inc.),
 the Gaussian(R) 94 system (copyright 1995, Gaussian, Inc.),
 the Gaussian 92(TM) system (copyright 1992, Gaussian, Inc.),
 the Gaussian 90(TM) system (copyright 1990, Gaussian, Inc.),
 the Gaussian 88(TM) system (copyright 1988, Gaussian, Inc.),
 the Gaussian 86(TM) system (copyright 1986, Carnegie Mellon
 University), and the Gaussian 82(TM) system (copyright 1983,
 Carnegie Mellon University). Gaussian is a federally registered
 trademark of Gaussian, Inc.
  
 This software contains proprietary and confidential information,
 including trade secrets, belonging to Gaussian, Inc.
  
 This software is provided under written license and may be
 used, copied, transmitted, or stored only in accord with that
 written license.
  
 The following legend is applicable only to US Government
 contracts under FAR:
  
                    RESTRICTED RIGHTS LEGEND
  
 Use, reproduction and disclosure by the US Government is
 subject to restrictions as set forth in subparagraphs (a)
 and (c) of the Commercial Computer Software - Restricted
 Rights clause in FAR 52.227-19.
  
 Gaussian, Inc.
 340 Quinnipiac St., Bldg. 40, Wallingford CT 06492
  
  
 ---------------------------------------------------------------
 Warning -- This program may not be used in any manner that
 competes with the business of Gaussian, Inc. or will provide
 assistance to any competitor of Gaussian, Inc.  The licensee
 of this program is prohibited from giving any competitor of
 Gaussian, Inc. access to this program.  By using this program,
 the user acknowledges that Gaussian, Inc. is engaged in the
 business of creating and licensing software in the field of
 computational chemistry and represents and warrants to the
 licensee that it is not a competitor of Gaussian, Inc. and that
 it will not use this program in any manner prohibited above.
 ---------------------------------------------------------------
  

 Cite this work as:
 Gaussian 16, Revision A.03,
 M. J. Frisch, G. W. Trucks, H. B. Schlegel, G. E. Scuseria, 
 M. A. Robb, J. R. Cheeseman, G. Scalmani, V. Barone, 
 G. A. Petersson, H. Nakatsuji, X. Li, M. Caricato, A. V. Marenich, 
 J. Bloino, B. G. Janesko, R. Gomperts, B. Mennucci, H. P. Hratchian, 
 J. V. Ortiz, A. F. Izmaylov, J. L. Sonnenberg, D. Williams-Young, 
 F. Ding, F. Lipparini, F. Egidi, J. Goings, B. Peng, A. Petrone, 
 T. Henderson, D. Ranasinghe, V. G. Zakrzewski, J. Gao, N. Rega, 
 G. Zheng, W. Liang, M. Hada, M. Ehara, K. Toyota, R. Fukuda, 
 J. Hasegawa, M. Ishida, T. Nakajima, Y. Honda, O. Kitao, H. Nakai, 
 T. Vreven, K. Throssell, J. A. Montgomery, Jr., J. E. Peralta, 
 F. Ogliaro, M. J. Bearpark, J. J. Heyd, E. N. Brothers, K. N. Kudin, 
 V. N. Staroverov, T. A. Keith, R. Kobayashi, J. Normand, 
 K. Raghavachari, A. P. Rendell, J. C. Burant, S. S. Iyengar, 
 J. Tomasi, M. Cossi, J. M. Millam, M. Klene, C. Adamo, R. Cammi, 
 J. W. Ochterski, R. L. Martin, K. Morokuma, O. Farkas, 
 J. B. Foresman, and D. J. Fox, Gaussian, Inc., Wallingford CT, 2016.
 
 ******************************************
 Gaussian 16:  EM64M-G16RevA.03 25-Dec-2016
                 6-Sep-2024 
 ******************************************
 %nprocshared=12
 Will use up to   12 processors via shared memory.
 %mem=12GB
 %chk=r32_DFT_B3LPY_apVTZ_Opt_Freq_Full_NBO_Raman.chk
 ----------------------------------------------------------------------
 #p opt=tight freq=raman b3lyp/aug-cc-pvtz guess=save pop=(hirshfeld,fu
 ll,nbo) geom=connectivity polar
 ----------------------------------------------------------------------
 1/7=10,18=20,19=15,26=3,38=1,57=2/1,3;
 2/9=110,12=2,17=6,18=5,40=1/2;
 3/5=16,6=1,7=10,11=2,25=1,30=1,71=1,74=-5/1,2,3;
 4//1;
 5/5=2,38=5,98=1/2;
 6/7=3,28=1,40=1,79=1/1,7;
 7//1,2,3,16;
 1/7=10,18=20,19=15,26=3/3(2);
 2/9=110/2;
 99//99;
 2/9=110/2;
 3/5=16,6=1,7=10,11=2,25=1,30=1,71=1,74=-5/1,2,3;
 4/5=5,16=3,69=1/1;
 5/5=2,38=5,98=1/2;
 7//1,2,3,16;
 1/7=10,18=20,19=15,26=3/3(-5);
 2/9=110/2;
 6/7=3,19=2,28=1,40=1,79=1/1,7;
 99/9=1/99;
 Leave Link    1 at Fri Sep  6 16:25:31 2024, MaxMem=  1610612736 cpu:               0.3 elap:               0.0
 (Enter /Users/asuyarger/Applications/G16/g16/l101.exe)
 -----------------------------------------------
 R32 DFT B3LPY aug-cc-pVTZ Opt Freq - Full - NBO
 -----------------------------------------------
 Symbolic Z-matrix:
 Charge =  0 Multiplicity = 1
 C                    -0.93128   0.8047    0. 
 H                    -0.57463  -0.20411  0. 
 H                    -0.57461   1.3091   -0.87365 
 F                    -0.48128   1.44109   1.10227 
 F                    -2.28128   0.80472  0. 
 
 ITRead=  0  0  0  0  0
 MicOpt= -1 -1 -1 -1 -1
 NAtoms=      5 NQM=        5 NQMF=       0 NMMI=      0 NMMIF=      0
                NMic=       0 NMicF=      0.
                    Isotopes and Nuclear Properties:
 (Nuclear quadrupole moments (NQMom) in fm**2, nuclear magnetic moments (NMagM)
  in nuclear magnetons)

  Atom         1           2           3           4           5
 IAtWgt=          12           1           1          19          19
 AtmWgt=  12.0000000   1.0078250   1.0078250  18.9984033  18.9984033
 NucSpn=           0           1           1           1           1
 AtZEff=  -0.0000000  -0.0000000  -0.0000000  -0.0000000  -0.0000000
 NQMom=    0.0000000   0.0000000   0.0000000   0.0000000   0.0000000
 NMagM=    0.0000000   2.7928460   2.7928460   2.6288670   2.6288670
 AtZNuc=   6.0000000   1.0000000   1.0000000   9.0000000   9.0000000
 Leave Link  101 at Fri Sep  6 16:25:31 2024, MaxMem=  1610612736 cpu:               2.4 elap:               0.2
 (Enter /Users/asuyarger/Applications/G16/g16/l103.exe)

 GradGradGradGradGradGradGradGradGradGradGradGradGradGradGradGradGradGrad
 Berny optimization.
 Initialization pass.
                           ----------------------------
                           !    Initial Parameters    !
                           ! (Angstroms and Degrees)  !
 --------------------------                            --------------------------
 ! Name  Definition              Value          Derivative Info.                !
 --------------------------------------------------------------------------------
 ! R1    R(1,2)                  1.07           estimate D2E/DX2                !
 ! R2    R(1,3)                  1.07           estimate D2E/DX2                !
 ! R3    R(1,4)                  1.35           estimate D2E/DX2                !
 ! R4    R(1,5)                  1.35           estimate D2E/DX2                !
 ! A1    A(2,1,3)              109.4712         estimate D2E/DX2                !
 ! A2    A(2,1,4)              109.4712         estimate D2E/DX2                !
 ! A3    A(2,1,5)              109.4712         estimate D2E/DX2                !
 ! A4    A(3,1,4)              109.4712         estimate D2E/DX2                !
 ! A5    A(3,1,5)              109.4712         estimate D2E/DX2                !
 ! A6    A(4,1,5)              109.4712         estimate D2E/DX2                !
 ! D1    D(2,1,4,3)            120.0            estimate D2E/DX2                !
 ! D2    D(2,1,5,3)           -120.0            estimate D2E/DX2                !
 ! D3    D(2,1,5,4)            120.0            estimate D2E/DX2                !
 ! D4    D(3,1,5,4)           -120.0            estimate D2E/DX2                !
 --------------------------------------------------------------------------------
 Trust Radius=3.00D-01 FncErr=1.00D-07 GrdErr=1.00D-06 EigMax=2.50D+02 EigMin=1.00D-04
 Number of steps in this run=     24 maximum allowed number of steps=    100.
 GradGradGradGradGradGradGradGradGradGradGradGradGradGradGradGradGradGrad

 Leave Link  103 at Fri Sep  6 16:25:31 2024, MaxMem=  1610612736 cpu:               0.1 elap:               0.0
 (Enter /Users/asuyarger/Applications/G16/g16/l202.exe)
                          Input orientation:                          
 ---------------------------------------------------------------------
 Center     Atomic      Atomic             Coordinates (Angstroms)
 Number     Number       Type             X           Y           Z
 ---------------------------------------------------------------------
      1          6           0       -0.931284    0.804702    0.000000
      2          1           0       -0.574630   -0.204109   -0.000000
      3          1           0       -0.574611    1.309100   -0.873651
      4          9           0       -0.481276    1.441092    1.102270
      5          9           0       -2.281284    0.804718   -0.000000
 ---------------------------------------------------------------------
                    Distance matrix (angstroms):
                    1          2          3          4          5
     1  C    0.000000
     2  H    1.070000   0.000000
     3  H    1.070000   1.747303   0.000000
     4  F    1.350000   1.982524   1.982524   0.000000
     5  F    1.350000   1.982524   1.982524   2.204541   0.000000
 Stoichiometry    CH2F2
 Framework group  C2V[C2(C),SGV(F2),SGV'(H2)]
 Deg. of freedom     4
 Full point group                 C2V     NOp   4
 Largest Abelian subgroup         C2V     NOp   4
 Largest concise Abelian subgroup C2V     NOp   4
                         Standard orientation:                         
 ---------------------------------------------------------------------
 Center     Atomic      Atomic             Coordinates (Angstroms)
 Number     Number       Type             X           Y           Z
 ---------------------------------------------------------------------
      1          6           0       -0.000000    0.000000    0.492080
      2          1           0       -0.873651    0.000000    1.109845
      3          1           0        0.873651    0.000000    1.109845
      4          9           0        0.000000    1.102270   -0.287343
      5          9           0       -0.000000   -1.102270   -0.287343
 ---------------------------------------------------------------------
 Rotational constants (GHZ):          50.9657562          10.5939265           9.2655813
 Leave Link  202 at Fri Sep  6 16:25:31 2024, MaxMem=  1610612736 cpu:               0.1 elap:               0.0
 (Enter /Users/asuyarger/Applications/G16/g16/l301.exe)
 Standard basis: Aug-CC-pVTZ (5D, 7F)
 Ernie: Thresh=  0.10000D-02 Tol=  0.10000D-05 Strict=F.
 Ernie:  9 primitive shells out of 112 were deleted.
 There are    79 symmetry adapted cartesian basis functions of A1  symmetry.
 There are    30 symmetry adapted cartesian basis functions of A2  symmetry.
 There are    49 symmetry adapted cartesian basis functions of B1  symmetry.
 There are    57 symmetry adapted cartesian basis functions of B2  symmetry.
 There are    65 symmetry adapted basis functions of A1  symmetry.
 There are    28 symmetry adapted basis functions of A2  symmetry.
 There are    43 symmetry adapted basis functions of B1  symmetry.
 There are    48 symmetry adapted basis functions of B2  symmetry.
   184 basis functions,   270 primitive gaussians,   215 cartesian basis functions
    13 alpha electrons       13 beta electrons
       nuclear repulsion energy        77.6240968989 Hartrees.
 IExCor=  402 DFT=T Ex+Corr=B3LYP ExCW=0 ScaHFX=  0.200000
 ScaDFX=  0.800000  0.720000  1.000000  0.810000 ScalE2=  1.000000  1.000000
 IRadAn=      5 IRanWt=     -1 IRanGd=            0 ICorTp=0 IEmpDi=  4
 NAtoms=    5 NActive=    5 NUniq=    3 SFac= 2.78D+00 NAtFMM=   60 NAOKFM=F Big=F
 Integral buffers will be    131072 words long.
 Raffenetti 2 integral format.
 Two-electron integral symmetry is turned on.
 Leave Link  301 at Fri Sep  6 16:25:31 2024, MaxMem=  1610612736 cpu:               0.2 elap:               0.0
 (Enter /Users/asuyarger/Applications/G16/g16/l302.exe)
 NPDir=0 NMtPBC=     1 NCelOv=     1 NCel=       1 NClECP=     1 NCelD=      1
         NCelK=      1 NCelE2=     1 NClLst=     1 CellRange=     0.0.
 One-electron integrals computed using PRISM.
 One-electron integral symmetry used in STVInt
 NBasis=   184 RedAO= T EigKep=  7.26D-05  NBF=    65    28    43    48
 NBsUse=   184 1.00D-06 EigRej= -1.00D+00 NBFU=    65    28    43    48
 Precomputing XC quadrature grid using
 IXCGrd= 4 IRadAn=           5 IRanWt=          -1 IRanGd=           0 AccXCQ= 0.00D+00.
 Generated NRdTot=       0 NPtTot=           0 NUsed=           0 NTot=          32
 NSgBfM=   215   215   215   215   215 MxSgAt=     5 MxSgA2=     5.
 Leave Link  302 at Fri Sep  6 16:25:31 2024, MaxMem=  1610612736 cpu:               1.3 elap:               0.1
 (Enter /Users/asuyarger/Applications/G16/g16/l303.exe)
 DipDrv:  MaxL=1.
 Leave Link  303 at Fri Sep  6 16:25:31 2024, MaxMem=  1610612736 cpu:               0.2 elap:               0.0
 (Enter /Users/asuyarger/Applications/G16/g16/l401.exe)
 ExpMin= 2.53D-02 ExpMax= 1.95D+04 ExpMxC= 6.65D+02 IAcc=3 IRadAn=         5 AccDes= 0.00D+00
 Harris functional with IExCor=  402 and IRadAn=       5 diagonalized for initial guess.
 HarFok:  IExCor=  402 AccDes= 0.00D+00 IRadAn=         5 IDoV= 1 UseB2=F ITyADJ=14
 ICtDFT=  3500011 ScaDFX=  1.000000  1.000000  1.000000  1.000000
 FoFCou: FMM=F IPFlag=           0 FMFlag=      100000 FMFlg1=           0
         NFxFlg=           0 DoJE=T BraDBF=F KetDBF=T FulRan=T
         wScrn=  0.000000 ICntrl=       500 IOpCl=  0 I1Cent=   200000004 NGrid=           0
         NMat0=    1 NMatS0=      1 NMatT0=    0 NMatD0=    1 NMtDS0=    0 NMtDT0=    0
 Petite list used in FoFCou.
 Harris En= -239.064014582013    
 JPrj=0 DoOrth=F DoCkMO=F.
 Initial guess orbital symmetries:
       Occupied  (B2) (A1) (A1) (A1) (B2) (A1) (B2) (A1) (B1) (A2)
                 (A1) (B2) (B1)
       Virtual   (A1) (B2) (B1) (A1) (A1) (B2) (B1) (A1) (B1) (A1)
                 (B2) (A2) (A1) (A1) (B2) (B1) (A2) (A1) (B2) (B1)
                 (A1) (B1) (A1) (B2) (B1) (A1) (B2) (A2) (A1) (B1)
                 (A1) (A1) (B2) (B1) (A2) (A1) (B1) (A1) (B1) (A1)
                 (B2) (A2) (B2) (A1) (B2) (A2) (B2) (B1) (B1) (A1)
                 (B1) (B2) (A2) (A1) (B2) (A1) (A2) (A1) (A1) (B1)
                 (B2) (A1) (B1) (A1) (A2) (B2) (B1) (B1) (A1) (A2)
                 (B2) (A1) (B2) (B1) (A2) (B1) (B2) (A1) (A1) (B2)
                 (A1) (A2) (B2) (B2) (B1) (A1) (B1) (B2) (A1) (A1)
                 (A2) (B2) (A1) (B1) (A2) (A1) (B1) (A1) (B2) (A1)
                 (A2) (B1) (A2) (B1) (B2) (B2) (A1) (A2) (B1) (B2)
                 (B1) (A1) (A1) (B2) (B1) (A2) (A1) (B1) (B2) (A1)
                 (A1) (A1) (A1) (B2) (A2) (B1) (B2) (A2) (B2) (B1)
                 (B1) (A1) (B2) (A2) (A1) (B2) (A1) (A2) (B1) (B1)
                 (A1) (B1) (A1) (B2) (B2) (A2) (A1) (B1) (A1) (A2)
                 (B2) (A1) (B1) (A2) (B2) (B2) (A1) (B1) (A2) (B1)
                 (A1) (B2) (B2) (A1) (B1) (B2) (A2) (A1) (A1) (B2)
                 (A1)
 The electronic state of the initial guess is 1-A1.
 Leave Link  401 at Fri Sep  6 16:25:32 2024, MaxMem=  1610612736 cpu:               1.9 elap:               0.2
 (Enter /Users/asuyarger/Applications/G16/g16/l502.exe)
 Keep R1 ints in memory in symmetry-blocked form, NReq=181273312.
 FoFCou: FMM=F IPFlag=           0 FMFlag=           0 FMFlg1=           0
         NFxFlg=           0 DoJE=F BraDBF=F KetDBF=F FulRan=T
         wScrn=  0.000000 ICntrl=       600 IOpCl=  0 I1Cent=           0 NGrid=           0
         NMat0=    1 NMatS0=  17020 NMatT0=    0 NMatD0=    1 NMtDS0=    0 NMtDT0=    0
 Petite list used in FoFCou.
 Closed shell SCF:
 Using DIIS extrapolation, IDIIS=  1040.
 NGot=  1610612736 LenX=  1574092333 LenY=  1574045667
 Requested convergence on RMS density matrix=1.00D-08 within 128 cycles.
 Requested convergence on MAX density matrix=1.00D-06.
 Requested convergence on             energy=1.00D-06.
 No special actions if energy rises.

 Cycle   1  Pass 1  IDiag  1:
 E= -239.063864689115    
 DIIS: error= 1.42D-02 at cycle   1 NSaved=   1.
 NSaved= 1 IEnMin= 1 EnMin= -239.063864689115     IErMin= 1 ErrMin= 1.42D-02
 ErrMax= 1.42D-02  0.00D+00 EMaxC= 1.00D-01 BMatC= 4.23D-02 BMatP= 4.23D-02
 IDIUse=3 WtCom= 8.58D-01 WtEn= 1.42D-01
 Coeff-Com:  0.100D+01
 Coeff-En:   0.100D+01
 Coeff:      0.100D+01
 Gap=     0.313 Goal=   None    Shift=    0.000
 GapD=    0.313 DampG=1.000 DampE=0.500 DampFc=0.5000 IDamp=-1.
 Damping current iteration by 5.00D-01
 RMSDP=1.13D-03 MaxDP=2.81D-02              OVMax= 5.90D-02

 Cycle   2  Pass 1  IDiag  1:
 E= -239.073265677136     Delta-E=       -0.009400988021 Rises=F Damp=T
 DIIS: error= 5.28D-03 at cycle   2 NSaved=   2.
 NSaved= 2 IEnMin= 2 EnMin= -239.073265677136     IErMin= 2 ErrMin= 5.28D-03
 ErrMax= 5.28D-03  0.00D+00 EMaxC= 1.00D-01 BMatC= 4.21D-03 BMatP= 4.23D-02
 IDIUse=3 WtCom= 9.47D-01 WtEn= 5.28D-02
 Coeff-Com:  0.932D-01 0.907D+00
 Coeff-En:   0.148D+00 0.852D+00
 Coeff:      0.961D-01 0.904D+00
 Gap=     0.351 Goal=   None    Shift=    0.000
 RMSDP=4.15D-04 MaxDP=1.20D-02 DE=-9.40D-03 OVMax= 3.78D-02

 Cycle   3  Pass 1  IDiag  1:
 E= -239.086192881720     Delta-E=       -0.012927204584 Rises=F Damp=F
 DIIS: error= 2.90D-03 at cycle   3 NSaved=   3.
 NSaved= 3 IEnMin= 3 EnMin= -239.086192881720     IErMin= 3 ErrMin= 2.90D-03
 ErrMax= 2.90D-03  0.00D+00 EMaxC= 1.00D-01 BMatC= 1.54D-03 BMatP= 4.21D-03
 IDIUse=3 WtCom= 9.71D-01 WtEn= 2.90D-02
 Coeff-Com: -0.634D-01 0.351D+00 0.713D+00
 Coeff-En:   0.000D+00 0.000D+00 0.100D+01
 Coeff:     -0.616D-01 0.341D+00 0.721D+00
 Gap=     0.350 Goal=   None    Shift=    0.000
 RMSDP=1.20D-04 MaxDP=5.53D-03 DE=-1.29D-02 OVMax= 9.81D-03

 Cycle   4  Pass 1  IDiag  1:
 E= -239.087081067676     Delta-E=       -0.000888185956 Rises=F Damp=F
 DIIS: error= 9.72D-04 at cycle   4 NSaved=   4.
 NSaved= 4 IEnMin= 4 EnMin= -239.087081067676     IErMin= 4 ErrMin= 9.72D-04
 ErrMax= 9.72D-04  0.00D+00 EMaxC= 1.00D-01 BMatC= 1.05D-04 BMatP= 1.54D-03
 IDIUse=3 WtCom= 9.90D-01 WtEn= 9.72D-03
 Coeff-Com: -0.198D-01 0.861D-01 0.289D+00 0.645D+00
 Coeff-En:   0.000D+00 0.000D+00 0.000D+00 0.100D+01
 Coeff:     -0.196D-01 0.852D-01 0.286D+00 0.649D+00
 Gap=     0.348 Goal=   None    Shift=    0.000
 RMSDP=3.64D-05 MaxDP=1.43D-03 DE=-8.88D-04 OVMax= 2.59D-03

 Cycle   5  Pass 1  IDiag  1:
 E= -239.087161745765     Delta-E=       -0.000080678088 Rises=F Damp=F
 DIIS: error= 2.65D-04 at cycle   5 NSaved=   5.
 NSaved= 5 IEnMin= 5 EnMin= -239.087161745765     IErMin= 5 ErrMin= 2.65D-04
 ErrMax= 2.65D-04  0.00D+00 EMaxC= 1.00D-01 BMatC= 6.41D-06 BMatP= 1.05D-04
 IDIUse=3 WtCom= 9.97D-01 WtEn= 2.65D-03
 Coeff-Com: -0.393D-02 0.765D-02 0.672D-01 0.269D+00 0.660D+00
 Coeff-En:   0.000D+00 0.000D+00 0.000D+00 0.000D+00 0.100D+01
 Coeff:     -0.392D-02 0.763D-02 0.670D-01 0.268D+00 0.661D+00
 Gap=     0.349 Goal=   None    Shift=    0.000
 RMSDP=8.39D-06 MaxDP=2.67D-04 DE=-8.07D-05 OVMax= 5.37D-04

 Cycle   6  Pass 1  IDiag  1:
 E= -239.087166504769     Delta-E=       -0.000004759004 Rises=F Damp=F
 DIIS: error= 8.44D-06 at cycle   6 NSaved=   6.
 NSaved= 6 IEnMin= 6 EnMin= -239.087166504769     IErMin= 6 ErrMin= 8.44D-06
 ErrMax= 8.44D-06  0.00D+00 EMaxC= 1.00D-01 BMatC= 1.48D-08 BMatP= 6.41D-06
 IDIUse=1 WtCom= 1.00D+00 WtEn= 0.00D+00
 Coeff-Com: -0.343D-03-0.135D-04 0.561D-02 0.302D-01 0.914D-01 0.873D+00
 Coeff:     -0.343D-03-0.135D-04 0.561D-02 0.302D-01 0.914D-01 0.873D+00
 Gap=     0.349 Goal=   None    Shift=    0.000
 RMSDP=4.03D-07 MaxDP=1.77D-05 DE=-4.76D-06 OVMax= 3.01D-05

 Cycle   7  Pass 1  IDiag  1:
 E= -239.087166513455     Delta-E=       -0.000000008686 Rises=F Damp=F
 DIIS: error= 2.24D-06 at cycle   7 NSaved=   7.
 NSaved= 7 IEnMin= 7 EnMin= -239.087166513455     IErMin= 7 ErrMin= 2.24D-06
 ErrMax= 2.24D-06  0.00D+00 EMaxC= 1.00D-01 BMatC= 8.96D-10 BMatP= 1.48D-08
 IDIUse=1 WtCom= 1.00D+00 WtEn= 0.00D+00
 Coeff-Com: -0.124D-04-0.134D-03-0.485D-03 0.147D-03 0.193D-02 0.185D+00
 Coeff-Com:  0.813D+00
 Coeff:     -0.124D-04-0.134D-03-0.485D-03 0.147D-03 0.193D-02 0.185D+00
 Coeff:      0.813D+00
 Gap=     0.349 Goal=   None    Shift=    0.000
 RMSDP=6.55D-08 MaxDP=1.35D-06 DE=-8.69D-09 OVMax= 5.71D-06

 Cycle   8  Pass 1  IDiag  1:
 E= -239.087166513923     Delta-E=       -0.000000000468 Rises=F Damp=F
 DIIS: error= 3.07D-07 at cycle   8 NSaved=   8.
 NSaved= 8 IEnMin= 8 EnMin= -239.087166513923     IErMin= 8 ErrMin= 3.07D-07
 ErrMax= 3.07D-07  0.00D+00 EMaxC= 1.00D-01 BMatC= 8.88D-12 BMatP= 8.96D-10
 IDIUse=1 WtCom= 1.00D+00 WtEn= 0.00D+00
 Coeff-Com: -0.134D-05-0.255D-07-0.143D-03-0.451D-03-0.149D-02 0.181D-02
 Coeff-Com:  0.457D-01 0.955D+00
 Coeff:     -0.134D-05-0.255D-07-0.143D-03-0.451D-03-0.149D-02 0.181D-02
 Coeff:      0.457D-01 0.955D+00
 Gap=     0.349 Goal=   None    Shift=    0.000
 RMSDP=1.18D-08 MaxDP=4.00D-07 DE=-4.68D-10 OVMax= 8.50D-07

 Cycle   9  Pass 1  IDiag  1:
 E= -239.087166513933     Delta-E=       -0.000000000010 Rises=F Damp=F
 DIIS: error= 3.25D-08 at cycle   9 NSaved=   9.
 NSaved= 9 IEnMin= 9 EnMin= -239.087166513933     IErMin= 9 ErrMin= 3.25D-08
 ErrMax= 3.25D-08  0.00D+00 EMaxC= 1.00D-01 BMatC= 1.79D-13 BMatP= 8.88D-12
 IDIUse=1 WtCom= 1.00D+00 WtEn= 0.00D+00
 Coeff-Com:  0.472D-06 0.110D-05-0.383D-05-0.415D-04-0.177D-03-0.268D-02
 Coeff-Com: -0.101D-01 0.136D+00 0.877D+00
 Coeff:      0.472D-06 0.110D-05-0.383D-05-0.415D-04-0.177D-03-0.268D-02
 Coeff:     -0.101D-01 0.136D+00 0.877D+00
 Gap=     0.349 Goal=   None    Shift=    0.000
 RMSDP=1.85D-09 MaxDP=5.92D-08 DE=-9.55D-12 OVMax= 1.41D-07

 SCF Done:  E(RB3LYP) =  -239.087166514     A.U. after    9 cycles
            NFock=  9  Conv=0.18D-08     -V/T= 2.0049
 KE= 2.379102342696D+02 PE=-7.230246012036D+02 EE= 1.684031035211D+02
 Leave Link  502 at Fri Sep  6 16:25:33 2024, MaxMem=  1610612736 cpu:              15.7 elap:               1.5
 (Enter /Users/asuyarger/Applications/G16/g16/l601.exe)
 Copying SCF densities to generalized density rwf, IOpCl= 0 IROHF=0.

 **********************************************************************

            Population analysis using the SCF density.

 **********************************************************************

 Orbital symmetries:
       Occupied  (B2) (A1) (A1) (A1) (B2) (A1) (A1) (B1) (B2) (A2)
                 (A1) (B2) (B1)
       Virtual   (A1) (B1) (B2) (A1) (A1) (B1) (A1) (B2) (A1) (B1)
                 (A2) (B2) (A1) (A1) (B2) (B1) (A2) (A1) (B1) (B2)
                 (B1) (A1) (A1) (B2) (B1) (A1) (B2) (A2) (A1) (B1)
                 (A1) (B2) (A1) (B1) (A2) (A1) (B1) (A1) (B1) (A2)
                 (A1) (B2) (B2) (A1) (B2) (A2) (B1) (B2) (B1) (A1)
                 (B1) (A1) (A2) (B2) (A1) (B2) (A2) (A1) (A1) (B1)
                 (B2) (A1) (B1) (A1) (A2) (B1) (B2) (B1) (A1) (A2)
                 (B2) (A1) (B2) (B1) (A2) (B1) (B2) (A1) (A1) (B2)
                 (A1) (A2) (B2) (B2) (A1) (B1) (B1) (B2) (A1) (A1)
                 (A2) (B2) (A1) (B1) (A2) (A1) (B1) (A1) (B2) (A1)
                 (A2) (B1) (A2) (B1) (B2) (B2) (A1) (A2) (B1) (B2)
                 (B1) (A1) (A1) (B1) (B2) (A2) (A1) (B1) (B2) (A1)
                 (A1) (A1) (A1) (A2) (B2) (B1) (B2) (B2) (A2) (B1)
                 (B1) (A1) (B2) (A2) (A1) (A1) (B2) (A2) (B1) (B1)
                 (A1) (B1) (A1) (B2) (B2) (A2) (A1) (B1) (A1) (A2)
                 (B2) (A1) (B1) (A2) (B2) (B2) (A1) (B1) (A2) (B1)
                 (A1) (B2) (B2) (B1) (A1) (A2) (B2) (A1) (A1) (B2)
                 (A1)
 The electronic state is 1-A1.
 Alpha  occ. eigenvalues --  -24.70577 -24.70577 -10.33671  -1.26976  -1.21373
 Alpha  occ. eigenvalues --   -0.72368  -0.56432  -0.56300  -0.55942  -0.44042
 Alpha  occ. eigenvalues --   -0.43063  -0.42046  -0.35793
 Alpha virt. eigenvalues --   -0.00914   0.01633   0.02271   0.02628   0.08043
 Alpha virt. eigenvalues --    0.08685   0.11423   0.11795   0.13039   0.13501
 Alpha virt. eigenvalues --    0.13566   0.13711   0.16153   0.21549   0.22721
 Alpha virt. eigenvalues --    0.23787   0.24558   0.26387   0.26521   0.28024
 Alpha virt. eigenvalues --    0.29626   0.30240   0.31698   0.33016   0.36144
 Alpha virt. eigenvalues --    0.36387   0.37150   0.41673   0.43644   0.48330
 Alpha virt. eigenvalues --    0.54489   0.55369   0.55824   0.66513   0.68856
 Alpha virt. eigenvalues --    0.73619   0.76259   0.78531   0.81331   0.82391
 Alpha virt. eigenvalues --    0.82431   0.82668   0.86649   0.87151   0.88590
 Alpha virt. eigenvalues --    0.89822   0.90530   0.91698   0.95610   1.01738
 Alpha virt. eigenvalues --    1.02561   1.03954   1.04872   1.05397   1.07421
 Alpha virt. eigenvalues --    1.07812   1.08108   1.09808   1.18463   1.30800
 Alpha virt. eigenvalues --    1.33566   1.34492   1.37939   1.41518   1.43426
 Alpha virt. eigenvalues --    1.45433   1.46245   1.51693   1.51842   1.52434
 Alpha virt. eigenvalues --    1.53187   1.59142   1.60064   1.68996   1.76347
 Alpha virt. eigenvalues --    1.78904   1.86376   1.86772   2.19598   2.32874
 Alpha virt. eigenvalues --    2.36493   2.52080   2.56758   2.59475   2.59763
 Alpha virt. eigenvalues --    2.59967   2.63682   2.65492   2.69561   2.73329
 Alpha virt. eigenvalues --    2.77649   2.80531   2.83750   2.84255   2.87736
 Alpha virt. eigenvalues --    2.92302   3.01132   3.08142   3.08842   3.10782
 Alpha virt. eigenvalues --    3.10856   3.11529   3.21464   3.22639   3.23556
 Alpha virt. eigenvalues --    3.28865   3.33644   3.38887   3.49516   3.50808
 Alpha virt. eigenvalues --    3.53523   3.64170   3.67657   3.72952   3.73134
 Alpha virt. eigenvalues --    3.77918   3.85409   3.95496   4.06053   4.08890
 Alpha virt. eigenvalues --    4.19710   4.26454   4.39889   4.40086   4.41325
 Alpha virt. eigenvalues --    4.50584   4.52648   4.54697   4.54777   4.64860
 Alpha virt. eigenvalues --    4.81548   4.92393   5.11029   5.22815   5.24259
 Alpha virt. eigenvalues --    5.28044   5.28354   5.28629   5.29753   5.68546
 Alpha virt. eigenvalues --    5.70875   6.15028   6.51621   6.69789   8.34191
 Alpha virt. eigenvalues --    8.38549   8.39292   8.42744   8.56816   8.57773
 Alpha virt. eigenvalues --    8.68663   8.73417   8.74730   8.76935   8.77415
 Alpha virt. eigenvalues --    8.78795   8.80817   8.81891   8.83506   8.84219
 Alpha virt. eigenvalues --    8.86949   8.97698   9.04032   9.16127   9.16325
 Alpha virt. eigenvalues --    9.26097   9.26525   9.41451  14.14143  14.57196
 Alpha virt. eigenvalues --   16.80094
     Molecular Orbital Coefficients:
                           1         2         3         4         5
                        (B2)--O   (A1)--O   (A1)--O   (A1)--O   (B2)--O
     Eigenvalues --   -24.70577 -24.70577 -10.33671  -1.26976  -1.21373
   1 1   C  1S          0.00000   0.00025   0.97774  -0.08067   0.00000
   2        2S          0.00000   0.00161   0.01578   0.17217   0.00000
   3        3S          0.00000  -0.00055   0.05346   0.04703   0.00000
   4        4S          0.00000  -0.00626  -0.01170  -0.09126   0.00000
   5        5S          0.00000   0.00188  -0.00292  -0.01829   0.00000
   6        6PX         0.00000   0.00000   0.00000   0.00000   0.00000
   7        6PY        -0.00027   0.00000   0.00000   0.00000   0.08034
   8        6PZ         0.00000   0.00024  -0.00190  -0.04984   0.00000
   9        7PX         0.00000   0.00000   0.00000   0.00000   0.00000
  10        7PY         0.00307   0.00000   0.00000   0.00000   0.06772
  11        7PZ         0.00000  -0.00340   0.00764  -0.04560   0.00000
  12        8PX         0.00000   0.00000   0.00000   0.00000   0.00000
  13        8PY         0.00107   0.00000   0.00000   0.00000  -0.01108
  14        8PZ         0.00000  -0.00215   0.00663  -0.00257   0.00000
  15        9PX         0.00000   0.00000   0.00000   0.00000   0.00000
  16        9PY        -0.00001   0.00000   0.00000   0.00000  -0.00181
  17        9PZ         0.00000   0.00015  -0.00050   0.00053   0.00000
  18       10D 0        0.00000   0.00002   0.00004   0.00087   0.00000
  19       10D+1        0.00000   0.00000   0.00000   0.00000   0.00000
  20       10D-1       -0.00046   0.00000   0.00000   0.00000  -0.01458
  21       10D+2        0.00000  -0.00039   0.00028  -0.00858   0.00000
  22       10D-2        0.00000   0.00000   0.00000   0.00000   0.00000
  23       11D 0        0.00000   0.00023  -0.00061   0.00016   0.00000
  24       11D+1        0.00000   0.00000   0.00000   0.00000   0.00000
  25       11D-1       -0.00309   0.00000   0.00000   0.00000  -0.02340
  26       11D+2        0.00000  -0.00284   0.00433  -0.01962   0.00000
  27       11D-2        0.00000   0.00000   0.00000   0.00000   0.00000
  28       12D 0        0.00000   0.00008  -0.00046  -0.00277   0.00000
  29       12D+1        0.00000   0.00000   0.00000   0.00000   0.00000
  30       12D-1       -0.00041   0.00000   0.00000   0.00000   0.00458
  31       12D+2        0.00000  -0.00054   0.00205   0.00044   0.00000
  32       12D-2        0.00000   0.00000   0.00000   0.00000   0.00000
  33       13F 0        0.00000   0.00034  -0.00035   0.00216   0.00000
  34       13F+1        0.00000   0.00000   0.00000   0.00000   0.00000
  35       13F-1        0.00023   0.00000   0.00000   0.00000   0.00164
  36       13F+2        0.00000   0.00051   0.00246   0.00689   0.00000
  37       13F-2        0.00000   0.00000   0.00000   0.00000   0.00000
  38       13F+3        0.00000   0.00000   0.00000   0.00000   0.00000
  39       13F-3       -0.00039   0.00000   0.00000   0.00000  -0.00266
  40       14F 0        0.00000   0.00076   0.00011   0.00698   0.00000
  41       14F+1        0.00000   0.00000   0.00000   0.00000   0.00000
  42       14F-1        0.00084   0.00000   0.00000   0.00000   0.00800
  43       14F+2        0.00000  -0.00037  -0.00578  -0.00472   0.00000
  44       14F-2        0.00000   0.00000   0.00000   0.00000   0.00000
  45       14F+3        0.00000   0.00000   0.00000   0.00000   0.00000
  46       14F-3       -0.00068   0.00000   0.00000   0.00000  -0.00600
  47 2   H  1S          0.00000  -0.00001  -0.00011   0.01150   0.00000
  48        2S          0.00000   0.00348  -0.00370   0.02858   0.00000
  49        3S          0.00000   0.00346  -0.00741   0.02153   0.00000
  50        4S          0.00000  -0.00023   0.00013   0.00167   0.00000
  51        5PX         0.00000   0.00002  -0.00081   0.00090   0.00000
  52        5PY         0.00001   0.00000   0.00000   0.00000   0.00113
  53        5PZ         0.00000  -0.00000   0.00056  -0.00124   0.00000
  54        6PX         0.00000   0.00054  -0.00587  -0.00239   0.00000
  55        6PY         0.00068   0.00000   0.00000   0.00000   0.00588
  56        6PZ         0.00000  -0.00104   0.00440  -0.00320   0.00000
  57        7PX         0.00000   0.00074  -0.00291   0.00319   0.00000
  58        7PY         0.00058   0.00000   0.00000   0.00000  -0.00044
  59        7PZ         0.00000  -0.00114   0.00347  -0.00148   0.00000
  60        8D 0        0.00000   0.00003  -0.00001   0.00059   0.00000
  61        8D+1        0.00000  -0.00005   0.00127  -0.00043   0.00000
  62        8D-1       -0.00003   0.00000   0.00000   0.00000  -0.00099
  63        8D+2        0.00000   0.00002  -0.00096  -0.00030   0.00000
  64        8D-2        0.00005   0.00000   0.00000   0.00000   0.00100
  65        9D 0        0.00000   0.00014  -0.00050  -0.00040   0.00000
  66        9D+1        0.00000  -0.00021   0.00234   0.00281   0.00000
  67        9D-1       -0.00028   0.00000   0.00000   0.00000  -0.00114
  68        9D+2        0.00000  -0.00008  -0.00181  -0.00323   0.00000
  69        9D-2        0.00006   0.00000   0.00000   0.00000  -0.00156
  70 3   H  1S          0.00000  -0.00001  -0.00011   0.01150   0.00000
  71        2S          0.00000   0.00348  -0.00370   0.02858   0.00000
  72        3S          0.00000   0.00346  -0.00741   0.02153   0.00000
  73        4S          0.00000  -0.00023   0.00013   0.00167   0.00000
  74        5PX         0.00000  -0.00002   0.00081  -0.00090   0.00000
  75        5PY         0.00001   0.00000   0.00000   0.00000   0.00113
  76        5PZ         0.00000  -0.00000   0.00056  -0.00124   0.00000
  77        6PX         0.00000  -0.00054   0.00587   0.00239   0.00000
  78        6PY         0.00068   0.00000   0.00000   0.00000   0.00588
  79        6PZ         0.00000  -0.00104   0.00440  -0.00320   0.00000
  80        7PX         0.00000  -0.00074   0.00291  -0.00319   0.00000
  81        7PY         0.00058   0.00000   0.00000   0.00000  -0.00044
  82        7PZ         0.00000  -0.00114   0.00347  -0.00148   0.00000
  83        8D 0        0.00000   0.00003  -0.00001   0.00059   0.00000
  84        8D+1        0.00000   0.00005  -0.00127   0.00043   0.00000
  85        8D-1       -0.00003   0.00000   0.00000   0.00000  -0.00099
  86        8D+2        0.00000   0.00002  -0.00096  -0.00030   0.00000
  87        8D-2       -0.00005   0.00000   0.00000   0.00000  -0.00100
  88        9D 0        0.00000   0.00014  -0.00050  -0.00040   0.00000
  89        9D+1        0.00000   0.00021  -0.00234  -0.00281   0.00000
  90        9D-1       -0.00028   0.00000   0.00000   0.00000  -0.00114
  91        9D+2        0.00000  -0.00008  -0.00181  -0.00323   0.00000
  92        9D-2       -0.00006   0.00000   0.00000   0.00000   0.00156
  93 4   F  1S          0.68808   0.68808  -0.00006  -0.14599  -0.15756
  94        2S         -0.00828  -0.00826   0.00022   0.33654   0.36552
  95        3S          0.03590   0.03589   0.00030   0.10667   0.11635
  96        4S         -0.00055   0.00093   0.00819   0.22565   0.24081
  97        5S         -0.00340  -0.00308   0.00704   0.02453   0.02729
  98        6PX         0.00000   0.00000   0.00000   0.00000   0.00000
  99        6PY        -0.00069  -0.00066  -0.00018  -0.03646  -0.02440
 100        6PZ         0.00049   0.00049   0.00013   0.02201   0.02237
 101        7PX         0.00000   0.00000   0.00000   0.00000   0.00000
 102        7PY         0.00091   0.00076  -0.00018  -0.04595  -0.03242
 103        7PZ        -0.00059  -0.00058   0.00015   0.02767   0.02894
 104        8PX         0.00000   0.00000   0.00000   0.00000   0.00000
 105        8PY         0.00195   0.00094  -0.00092  -0.02459  -0.01192
 106        8PZ        -0.00067  -0.00114   0.00028   0.01044   0.01965
 107        9PX         0.00000   0.00000   0.00000   0.00000   0.00000
 108        9PY         0.00078   0.00040  -0.00069  -0.00199  -0.00259
 109        9PZ        -0.00040  -0.00054   0.00106   0.00038   0.00102
 110       10D 0       -0.00000   0.00000   0.00001  -0.00007   0.00018
 111       10D+1        0.00000   0.00000   0.00000   0.00000   0.00000
 112       10D-1       -0.00011  -0.00011  -0.00019  -0.00175  -0.00156
 113       10D+2       -0.00008  -0.00008  -0.00011  -0.00141  -0.00094
 114       10D-2        0.00000   0.00000   0.00000   0.00000   0.00000
 115       11D 0        0.00003  -0.00003  -0.00007  -0.00108   0.00106
 116       11D+1        0.00000   0.00000   0.00000   0.00000   0.00000
 117       11D-1        0.00042   0.00045   0.00087  -0.00743  -0.00835
 118       11D+2        0.00032   0.00032   0.00051  -0.00660  -0.00503
 119       11D-2        0.00000   0.00000   0.00000   0.00000   0.00000
 120       12D 0        0.00020  -0.00011   0.00015  -0.00105   0.00231
 121       12D+1        0.00000   0.00000   0.00000   0.00000   0.00000
 122       12D-1        0.00033   0.00049   0.00164   0.00049  -0.00378
 123       12D+2        0.00047   0.00016   0.00080  -0.00180   0.00049
 124       12D-2        0.00000   0.00000   0.00000   0.00000   0.00000
 125       13F 0       -0.00000   0.00001  -0.00005  -0.00045  -0.00033
 126       13F+1        0.00000   0.00000   0.00000   0.00000   0.00000
 127       13F-1       -0.00000   0.00001  -0.00002  -0.00027  -0.00038
 128       13F+2       -0.00002  -0.00000  -0.00021  -0.00087  -0.00082
 129       13F-2        0.00000   0.00000   0.00000   0.00000   0.00000
 130       13F+3        0.00000   0.00000   0.00000   0.00000   0.00000
 131       13F-3       -0.00002   0.00001   0.00000   0.00058   0.00034
 132       14F 0        0.00009   0.00007   0.00061  -0.00105  -0.00105
 133       14F+1        0.00000   0.00000   0.00000   0.00000   0.00000
 134       14F-1        0.00006   0.00007   0.00048  -0.00016  -0.00164
 135       14F+2        0.00022   0.00019   0.00148  -0.00174  -0.00191
 136       14F-2        0.00000   0.00000   0.00000   0.00000   0.00000
 137       14F+3        0.00000   0.00000   0.00000   0.00000   0.00000
 138       14F-3       -0.00006  -0.00012  -0.00046   0.00146   0.00106
 139 5   F  1S         -0.68808   0.68808  -0.00006  -0.14599   0.15756
 140        2S          0.00828  -0.00826   0.00022   0.33654  -0.36552
 141        3S         -0.03590   0.03589   0.00030   0.10667  -0.11635
 142        4S          0.00055   0.00093   0.00819   0.22565  -0.24081
 143        5S          0.00340  -0.00308   0.00704   0.02453  -0.02729
 144        6PX         0.00000   0.00000   0.00000   0.00000   0.00000
 145        6PY        -0.00069   0.00066   0.00018   0.03646  -0.02440
 146        6PZ        -0.00049   0.00049   0.00013   0.02201  -0.02237
 147        7PX         0.00000   0.00000   0.00000   0.00000   0.00000
 148        7PY         0.00091  -0.00076   0.00018   0.04595  -0.03242
 149        7PZ         0.00059  -0.00058   0.00015   0.02767  -0.02894
 150        8PX         0.00000   0.00000   0.00000   0.00000   0.00000
 151        8PY         0.00195  -0.00094   0.00092   0.02459  -0.01192
 152        8PZ         0.00067  -0.00114   0.00028   0.01044  -0.01965
 153        9PX         0.00000   0.00000   0.00000   0.00000   0.00000
 154        9PY         0.00078  -0.00040   0.00069   0.00199  -0.00259
 155        9PZ         0.00040  -0.00054   0.00106   0.00038  -0.00102
 156       10D 0        0.00000   0.00000   0.00001  -0.00007  -0.00018
 157       10D+1        0.00000   0.00000   0.00000   0.00000   0.00000
 158       10D-1       -0.00011   0.00011   0.00019   0.00175  -0.00156
 159       10D+2        0.00008  -0.00008  -0.00011  -0.00141   0.00094
 160       10D-2        0.00000   0.00000   0.00000   0.00000   0.00000
 161       11D 0       -0.00003  -0.00003  -0.00007  -0.00108  -0.00106
 162       11D+1        0.00000   0.00000   0.00000   0.00000   0.00000
 163       11D-1        0.00042  -0.00045  -0.00087   0.00743  -0.00835
 164       11D+2       -0.00032   0.00032   0.00051  -0.00660   0.00503
 165       11D-2        0.00000   0.00000   0.00000   0.00000   0.00000
 166       12D 0       -0.00020  -0.00011   0.00015  -0.00105  -0.00231
 167       12D+1        0.00000   0.00000   0.00000   0.00000   0.00000
 168       12D-1        0.00033  -0.00049  -0.00164  -0.00049  -0.00378
 169       12D+2       -0.00047   0.00016   0.00080  -0.00180  -0.00049
 170       12D-2        0.00000   0.00000   0.00000   0.00000   0.00000
 171       13F 0        0.00000   0.00001  -0.00005  -0.00045   0.00033
 172       13F+1        0.00000   0.00000   0.00000   0.00000   0.00000
 173       13F-1       -0.00000  -0.00001   0.00002   0.00027  -0.00038
 174       13F+2        0.00002  -0.00000  -0.00021  -0.00087   0.00082
 175       13F-2        0.00000   0.00000   0.00000   0.00000   0.00000
 176       13F+3        0.00000   0.00000   0.00000   0.00000   0.00000
 177       13F-3       -0.00002  -0.00001  -0.00000  -0.00058   0.00034
 178       14F 0       -0.00009   0.00007   0.00061  -0.00105   0.00105
 179       14F+1        0.00000   0.00000   0.00000   0.00000   0.00000
 180       14F-1        0.00006  -0.00007  -0.00048   0.00016  -0.00164
 181       14F+2       -0.00022   0.00019   0.00148  -0.00174   0.00191
 182       14F-2        0.00000   0.00000   0.00000   0.00000   0.00000
 183       14F+3        0.00000   0.00000   0.00000   0.00000   0.00000
 184       14F-3       -0.00006   0.00012   0.00046  -0.00146   0.00106
                           6         7         8         9        10
                        (A1)--O   (A1)--O   (B1)--O   (B2)--O   (A2)--O
     Eigenvalues --    -0.72368  -0.56432  -0.56300  -0.55942  -0.44042
   1 1   C  1S         -0.16719  -0.01029   0.00000   0.00000   0.00000
   2        2S          0.38658   0.02472   0.00000   0.00000   0.00000
   3        3S          0.10851   0.00515   0.00000   0.00000   0.00000
   4        4S          0.21514   0.07802   0.00000   0.00000   0.00000
   5        5S          0.00904   0.00437   0.00000   0.00000   0.00000
   6        6PX         0.00000   0.00000   0.21910   0.00000   0.00000
   7        6PY         0.00000   0.00000   0.00000   0.18903   0.00000
   8        6PZ         0.04360   0.20285   0.00000   0.00000   0.00000
   9        7PX         0.00000   0.00000   0.25793   0.00000   0.00000
  10        7PY         0.00000   0.00000   0.00000   0.20820   0.00000
  11        7PZ         0.04073   0.23113   0.00000   0.00000   0.00000
  12        8PX         0.00000   0.00000  -0.00995   0.00000   0.00000
  13        8PY         0.00000   0.00000   0.00000   0.04904   0.00000
  14        8PZ         0.03089   0.06567   0.00000   0.00000   0.00000
  15        9PX         0.00000   0.00000  -0.00304   0.00000   0.00000
  16        9PY         0.00000   0.00000   0.00000   0.00108   0.00000
  17        9PZ         0.00047  -0.00180   0.00000   0.00000   0.00000
  18       10D 0       -0.00112  -0.01006   0.00000   0.00000   0.00000
  19       10D+1        0.00000   0.00000   0.00107   0.00000   0.00000
  20       10D-1        0.00000   0.00000   0.00000  -0.01444   0.00000
  21       10D+2        0.00382   0.00699   0.00000   0.00000   0.00000
  22       10D-2        0.00000   0.00000   0.00000   0.00000   0.01690
  23       11D 0       -0.00182  -0.01591   0.00000   0.00000   0.00000
  24       11D+1        0.00000   0.00000   0.00459   0.00000   0.00000
  25       11D-1        0.00000   0.00000   0.00000  -0.03524   0.00000
  26       11D+2       -0.00413   0.02026   0.00000   0.00000   0.00000
  27       11D-2        0.00000   0.00000   0.00000   0.00000   0.04029
  28       12D 0        0.00225   0.02247   0.00000   0.00000   0.00000
  29       12D+1        0.00000   0.00000  -0.01151   0.00000   0.00000
  30       12D-1        0.00000   0.00000   0.00000  -0.00044   0.00000
  31       12D+2        0.00205  -0.00488   0.00000   0.00000   0.00000
  32       12D-2        0.00000   0.00000   0.00000   0.00000  -0.00558
  33       13F 0        0.00094   0.00122   0.00000   0.00000   0.00000
  34       13F+1        0.00000   0.00000   0.00114   0.00000   0.00000
  35       13F-1        0.00000   0.00000   0.00000  -0.00078   0.00000
  36       13F+2        0.00481  -0.00252   0.00000   0.00000   0.00000
  37       13F-2        0.00000   0.00000   0.00000   0.00000  -0.00812
  38       13F+3        0.00000   0.00000  -0.00502   0.00000   0.00000
  39       13F-3        0.00000   0.00000   0.00000  -0.00315   0.00000
  40       14F 0        0.00237  -0.00455   0.00000   0.00000   0.00000
  41       14F+1        0.00000   0.00000  -0.00392   0.00000   0.00000
  42       14F-1        0.00000   0.00000   0.00000   0.01036   0.00000
  43       14F+2        0.00554   0.00070   0.00000   0.00000   0.00000
  44       14F-2        0.00000   0.00000   0.00000   0.00000  -0.00007
  45       14F+3        0.00000   0.00000   0.00263   0.00000   0.00000
  46       14F-3        0.00000   0.00000   0.00000  -0.00649   0.00000
  47 2   H  1S          0.09038   0.07452  -0.09782   0.00000   0.00000
  48        2S          0.09096   0.07206  -0.11325   0.00000   0.00000
  49        3S         -0.01082   0.02143  -0.13821   0.00000   0.00000
  50        4S         -0.00098  -0.00039  -0.00274   0.00000   0.00000
  51        5PX         0.00821   0.00763  -0.00665   0.00000   0.00000
  52        5PY         0.00000   0.00000   0.00000   0.00337  -0.00223
  53        5PZ        -0.00498  -0.00241   0.00857   0.00000   0.00000
  54        6PX         0.00311   0.00387   0.00697   0.00000   0.00000
  55        6PY         0.00000   0.00000   0.00000   0.01075   0.00491
  56        6PZ        -0.00170   0.01063  -0.00197   0.00000   0.00000
  57        7PX        -0.00807  -0.01018  -0.02068   0.00000   0.00000
  58        7PY         0.00000   0.00000   0.00000   0.00030  -0.00345
  59        7PZ         0.00390  -0.00734   0.01094   0.00000   0.00000
  60        8D 0       -0.00009  -0.00155  -0.00134   0.00000   0.00000
  61        8D+1       -0.00174  -0.00061   0.00180   0.00000   0.00000
  62        8D-1        0.00000   0.00000   0.00000  -0.00154  -0.00000
  63        8D+2        0.00123   0.00149  -0.00041   0.00000   0.00000
  64        8D-2        0.00000   0.00000   0.00000   0.00207  -0.00054
  65        9D 0        0.00042  -0.00097   0.00217   0.00000   0.00000
  66        9D+1        0.00170   0.00199  -0.00698   0.00000   0.00000
  67        9D-1        0.00000   0.00000   0.00000   0.00093  -0.00403
  68        9D+2       -0.00075  -0.00067   0.00141   0.00000   0.00000
  69        9D-2        0.00000   0.00000   0.00000  -0.00136   0.00523
  70 3   H  1S          0.09038   0.07452   0.09782   0.00000   0.00000
  71        2S          0.09096   0.07206   0.11325   0.00000   0.00000
  72        3S         -0.01082   0.02143   0.13821   0.00000   0.00000
  73        4S         -0.00098  -0.00039   0.00274   0.00000   0.00000
  74        5PX        -0.00821  -0.00763  -0.00665   0.00000   0.00000
  75        5PY         0.00000   0.00000   0.00000   0.00337   0.00223
  76        5PZ        -0.00498  -0.00241  -0.00857   0.00000   0.00000
  77        6PX        -0.00311  -0.00387   0.00697   0.00000   0.00000
  78        6PY         0.00000   0.00000   0.00000   0.01075  -0.00491
  79        6PZ        -0.00170   0.01063   0.00197   0.00000   0.00000
  80        7PX         0.00807   0.01018  -0.02068   0.00000   0.00000
  81        7PY         0.00000   0.00000   0.00000   0.00030   0.00345
  82        7PZ         0.00390  -0.00734  -0.01094   0.00000   0.00000
  83        8D 0       -0.00009  -0.00155   0.00134   0.00000   0.00000
  84        8D+1        0.00174   0.00061   0.00180   0.00000   0.00000
  85        8D-1        0.00000   0.00000   0.00000  -0.00154   0.00000
  86        8D+2        0.00123   0.00149   0.00041   0.00000   0.00000
  87        8D-2        0.00000   0.00000   0.00000  -0.00207  -0.00054
  88        9D 0        0.00042  -0.00097  -0.00217   0.00000   0.00000
  89        9D+1       -0.00170  -0.00199  -0.00698   0.00000   0.00000
  90        9D-1        0.00000   0.00000   0.00000   0.00093   0.00403
  91        9D+2       -0.00075  -0.00067  -0.00141   0.00000   0.00000
  92        9D-2        0.00000   0.00000   0.00000   0.00136   0.00523
  93 4   F  1S          0.06382  -0.02426   0.00000   0.03839   0.00000
  94        2S         -0.15592   0.05838   0.00000  -0.09384   0.00000
  95        3S         -0.05261   0.02089   0.00000  -0.03336   0.00000
  96        4S         -0.16703   0.07422   0.00000  -0.13069   0.00000
  97        5S         -0.02424   0.01475   0.00000  -0.03192   0.00000
  98        6PX         0.00000   0.00000   0.17086   0.00000   0.28024
  99        6PY        -0.09369   0.19934   0.00000  -0.15102   0.00000
 100        6PZ         0.08296   0.03034   0.00000   0.18398   0.00000
 101        7PX         0.00000   0.00000   0.19788   0.00000   0.32528
 102        7PY        -0.10553   0.23171   0.00000  -0.17492   0.00000
 103        7PZ         0.09412   0.03544   0.00000   0.21330   0.00000
 104        8PX         0.00000   0.00000   0.14600   0.00000   0.24102
 105        8PY        -0.05363   0.14790   0.00000  -0.09463   0.00000
 106        8PZ         0.04753   0.03716   0.00000   0.13958   0.00000
 107        9PX         0.00000   0.00000   0.00705   0.00000   0.03814
 108        9PY        -0.00103   0.01513   0.00000  -0.00844   0.00000
 109        9PZ         0.00133   0.00685   0.00000   0.00874   0.00000
 110       10D 0        0.00032   0.00198   0.00000   0.00099   0.00000
 111       10D+1        0.00000   0.00000   0.00189   0.00000   0.00164
 112       10D-1       -0.00258   0.00134   0.00000  -0.00385   0.00000
 113       10D+2       -0.00144   0.00287   0.00000  -0.00186   0.00000
 114       10D-2        0.00000   0.00000  -0.00259   0.00000  -0.00193
 115       11D 0        0.00115   0.00883   0.00000   0.00425   0.00000
 116       11D+1        0.00000   0.00000   0.00713   0.00000   0.00588
 117       11D-1       -0.00723   0.00432   0.00000  -0.01385   0.00000
 118       11D+2       -0.00388   0.01087   0.00000  -0.00633   0.00000
 119       11D-2        0.00000   0.00000  -0.01022   0.00000  -0.00774
 120       12D 0       -0.00005   0.00518   0.00000   0.00697   0.00000
 121       12D+1        0.00000   0.00000   0.00656   0.00000   0.00470
 122       12D-1       -0.00169  -0.00177   0.00000  -0.00487   0.00000
 123       12D+2       -0.00095   0.00300   0.00000   0.00235   0.00000
 124       12D-2        0.00000   0.00000  -0.01084   0.00000  -0.00372
 125       13F 0       -0.00045   0.00098   0.00000  -0.00072   0.00000
 126       13F+1        0.00000   0.00000   0.00044   0.00000   0.00038
 127       13F-1       -0.00074  -0.00078   0.00000  -0.00133   0.00000
 128       13F+2       -0.00095   0.00122   0.00000  -0.00199   0.00000
 129       13F-2        0.00000   0.00000  -0.00145   0.00000  -0.00125
 130       13F+3        0.00000   0.00000  -0.00120   0.00000  -0.00096
 131       13F-3        0.00045  -0.00150   0.00000   0.00089   0.00000
 132       14F 0       -0.00056   0.00241   0.00000  -0.00083   0.00000
 133       14F+1        0.00000   0.00000   0.00016   0.00000   0.00040
 134       14F-1       -0.00054  -0.00180   0.00000  -0.00317   0.00000
 135       14F+2       -0.00157   0.00180   0.00000  -0.00240   0.00000
 136       14F-2        0.00000   0.00000  -0.00223   0.00000  -0.00174
 137       14F+3        0.00000   0.00000  -0.00260   0.00000  -0.00171
 138       14F-3        0.00074  -0.00174   0.00000   0.00090   0.00000
 139 5   F  1S          0.06382  -0.02426   0.00000  -0.03839   0.00000
 140        2S         -0.15592   0.05838   0.00000   0.09384   0.00000
 141        3S         -0.05261   0.02089   0.00000   0.03336   0.00000
 142        4S         -0.16703   0.07422   0.00000   0.13069   0.00000
 143        5S         -0.02424   0.01475   0.00000   0.03192   0.00000
 144        6PX         0.00000   0.00000   0.17086   0.00000  -0.28024
 145        6PY         0.09369  -0.19934   0.00000  -0.15102   0.00000
 146        6PZ         0.08296   0.03034   0.00000  -0.18398   0.00000
 147        7PX         0.00000   0.00000   0.19788   0.00000  -0.32528
 148        7PY         0.10553  -0.23171   0.00000  -0.17492   0.00000
 149        7PZ         0.09412   0.03544   0.00000  -0.21330   0.00000
 150        8PX         0.00000   0.00000   0.14600   0.00000  -0.24102
 151        8PY         0.05363  -0.14790   0.00000  -0.09463   0.00000
 152        8PZ         0.04753   0.03716   0.00000  -0.13958   0.00000
 153        9PX         0.00000   0.00000   0.00705   0.00000  -0.03814
 154        9PY         0.00103  -0.01513   0.00000  -0.00844   0.00000
 155        9PZ         0.00133   0.00685   0.00000  -0.00874   0.00000
 156       10D 0        0.00032   0.00198   0.00000  -0.00099   0.00000
 157       10D+1        0.00000   0.00000   0.00189   0.00000  -0.00164
 158       10D-1        0.00258  -0.00134   0.00000  -0.00385   0.00000
 159       10D+2       -0.00144   0.00287   0.00000   0.00186   0.00000
 160       10D-2        0.00000   0.00000   0.00259   0.00000  -0.00193
 161       11D 0        0.00115   0.00883   0.00000  -0.00425   0.00000
 162       11D+1        0.00000   0.00000   0.00713   0.00000  -0.00588
 163       11D-1        0.00723  -0.00432   0.00000  -0.01385   0.00000
 164       11D+2       -0.00388   0.01087   0.00000   0.00633   0.00000
 165       11D-2        0.00000   0.00000   0.01022   0.00000  -0.00774
 166       12D 0       -0.00005   0.00518   0.00000  -0.00697   0.00000
 167       12D+1        0.00000   0.00000   0.00656   0.00000  -0.00470
 168       12D-1        0.00169   0.00177   0.00000  -0.00487   0.00000
 169       12D+2       -0.00095   0.00300   0.00000  -0.00235   0.00000
 170       12D-2        0.00000   0.00000   0.01084   0.00000  -0.00372
 171       13F 0       -0.00045   0.00098   0.00000   0.00072   0.00000
 172       13F+1        0.00000   0.00000   0.00044   0.00000  -0.00038
 173       13F-1        0.00074   0.00078   0.00000  -0.00133   0.00000
 174       13F+2       -0.00095   0.00122   0.00000   0.00199   0.00000
 175       13F-2        0.00000   0.00000   0.00145   0.00000  -0.00125
 176       13F+3        0.00000   0.00000  -0.00120   0.00000   0.00096
 177       13F-3       -0.00045   0.00150   0.00000   0.00089   0.00000
 178       14F 0       -0.00056   0.00241   0.00000   0.00083   0.00000
 179       14F+1        0.00000   0.00000   0.00016   0.00000  -0.00040
 180       14F-1        0.00054   0.00180   0.00000  -0.00317   0.00000
 181       14F+2       -0.00157   0.00180   0.00000   0.00240   0.00000
 182       14F-2        0.00000   0.00000   0.00223   0.00000  -0.00174
 183       14F+3        0.00000   0.00000  -0.00260   0.00000   0.00171
 184       14F-3       -0.00074   0.00174   0.00000   0.00090   0.00000
                          11        12        13        14        15
                        (A1)--O   (B2)--O   (B1)--O   (A1)--V   (B1)--V
     Eigenvalues --    -0.43063  -0.42046  -0.35793  -0.00914   0.01633
   1 1   C  1S          0.02659   0.00000   0.00000  -0.04065   0.00000
   2        2S         -0.06298   0.00000   0.00000   0.10179   0.00000
   3        3S         -0.01504   0.00000   0.00000   0.02202   0.00000
   4        4S         -0.20345   0.00000   0.00000   1.32563   0.00000
   5        5S         -0.03331   0.00000   0.00000   1.87957   0.00000
   6        6PX         0.00000   0.00000   0.17879   0.00000   0.09193
   7        6PY         0.00000  -0.01407   0.00000   0.00000   0.00000
   8        6PZ        -0.10327   0.00000   0.00000   0.08045   0.00000
   9        7PX         0.00000   0.00000   0.19799   0.00000   0.14462
  10        7PY         0.00000  -0.00398   0.00000   0.00000   0.00000
  11        7PZ        -0.10822   0.00000   0.00000   0.10695   0.00000
  12        8PX         0.00000   0.00000   0.25967   0.00000   0.50541
  13        8PY         0.00000  -0.02793   0.00000   0.00000   0.00000
  14        8PZ        -0.10803   0.00000   0.00000   0.22988   0.00000
  15        9PX         0.00000   0.00000   0.04106   0.00000   1.22830
  16        9PY         0.00000  -0.00460   0.00000   0.00000   0.00000
  17        9PZ        -0.01025   0.00000   0.00000   0.16337   0.00000
  18       10D 0       -0.01271   0.00000   0.00000   0.00005   0.00000
  19       10D+1        0.00000   0.00000   0.02264   0.00000  -0.00110
  20       10D-1        0.00000   0.01468   0.00000   0.00000   0.00000
  21       10D+2       -0.02085   0.00000   0.00000  -0.00005   0.00000
  22       10D-2        0.00000   0.00000   0.00000   0.00000   0.00000
  23       11D 0       -0.03299   0.00000   0.00000   0.00460   0.00000
  24       11D+1        0.00000   0.00000   0.04540   0.00000   0.01470
  25       11D-1        0.00000   0.03738   0.00000   0.00000   0.00000
  26       11D+2       -0.04511   0.00000   0.00000  -0.00601   0.00000
  27       11D-2        0.00000   0.00000   0.00000   0.00000   0.00000
  28       12D 0       -0.00296   0.00000   0.00000   0.03416   0.00000
  29       12D+1        0.00000   0.00000   0.04647   0.00000   0.05058
  30       12D-1        0.00000   0.01461   0.00000   0.00000   0.00000
  31       12D+2       -0.02671   0.00000   0.00000  -0.00396   0.00000
  32       12D-2        0.00000   0.00000   0.00000   0.00000   0.00000
  33       13F 0        0.00476   0.00000   0.00000   0.00041   0.00000
  34       13F+1        0.00000   0.00000  -0.00152   0.00000   0.00054
  35       13F-1        0.00000  -0.01053   0.00000   0.00000   0.00000
  36       13F+2        0.00173   0.00000   0.00000   0.00313   0.00000
  37       13F-2        0.00000   0.00000   0.00000   0.00000   0.00000
  38       13F+3        0.00000   0.00000   0.00565   0.00000   0.00011
  39       13F-3        0.00000  -0.00285   0.00000   0.00000   0.00000
  40       14F 0        0.01201   0.00000   0.00000   0.00262   0.00000
  41       14F+1        0.00000   0.00000   0.00527   0.00000  -0.00110
  42       14F-1        0.00000  -0.00434   0.00000   0.00000   0.00000
  43       14F+2       -0.00231   0.00000   0.00000   0.03607   0.00000
  44       14F-2        0.00000   0.00000   0.00000   0.00000   0.00000
  45       14F+3        0.00000   0.00000   0.00219   0.00000   0.00172
  46       14F-3        0.00000   0.01004   0.00000   0.00000   0.00000
  47 2   H  1S         -0.06992   0.00000  -0.12526   0.00518  -0.00589
  48        2S         -0.06692   0.00000  -0.16041  -0.10251   0.05011
  49        3S          0.04004   0.00000   0.10773  -0.62799   0.58615
  50        4S          0.00403   0.00000   0.03033  -1.04120   3.58385
  51        5PX        -0.00526   0.00000  -0.00580   0.00658  -0.00354
  52        5PY         0.00000   0.00128   0.00000   0.00000   0.00000
  53        5PZ         0.00101   0.00000   0.00570  -0.00232   0.00424
  54        6PX        -0.00205   0.00000   0.00202  -0.01065   0.00314
  55        6PY         0.00000  -0.00467   0.00000   0.00000   0.00000
  56        6PZ        -0.00170   0.00000   0.00518   0.00739  -0.00733
  57        7PX         0.01126   0.00000   0.03827  -0.05648  -0.02810
  58        7PY         0.00000  -0.00146   0.00000   0.00000   0.00000
  59        7PZ        -0.01126   0.00000  -0.02484  -0.02296  -0.05494
  60        8D 0        0.00059   0.00000  -0.00039  -0.00063  -0.00078
  61        8D+1        0.00040   0.00000   0.00181   0.00034  -0.00011
  62        8D-1        0.00000   0.00034   0.00000   0.00000   0.00000
  63        8D+2       -0.00115   0.00000  -0.00057   0.00021   0.00040
  64        8D-2        0.00000   0.00026   0.00000   0.00000   0.00000
  65        9D 0       -0.00264   0.00000  -0.00248   0.00325   0.00478
  66        9D+1        0.00236   0.00000   0.00482  -0.00630  -0.00466
  67        9D-1        0.00000   0.00356   0.00000   0.00000   0.00000
  68        9D+2       -0.00158   0.00000  -0.00141  -0.00144  -0.00232
  69        9D-2        0.00000  -0.00207   0.00000   0.00000   0.00000
  70 3   H  1S         -0.06992   0.00000   0.12526   0.00518   0.00589
  71        2S         -0.06692   0.00000   0.16041  -0.10251  -0.05011
  72        3S          0.04004   0.00000  -0.10773  -0.62799  -0.58615
  73        4S          0.00403   0.00000  -0.03033  -1.04120  -3.58385
  74        5PX         0.00526   0.00000  -0.00580  -0.00658  -0.00354
  75        5PY         0.00000   0.00128   0.00000   0.00000   0.00000
  76        5PZ         0.00101   0.00000  -0.00570  -0.00232  -0.00424
  77        6PX         0.00205   0.00000   0.00202   0.01065   0.00314
  78        6PY         0.00000  -0.00467   0.00000   0.00000   0.00000
  79        6PZ        -0.00170   0.00000  -0.00518   0.00739   0.00733
  80        7PX        -0.01126   0.00000   0.03827   0.05648  -0.02810
  81        7PY         0.00000  -0.00146   0.00000   0.00000   0.00000
  82        7PZ        -0.01126   0.00000   0.02484  -0.02296   0.05494
  83        8D 0        0.00059   0.00000   0.00039  -0.00063   0.00078
  84        8D+1       -0.00040   0.00000   0.00181  -0.00034  -0.00011
  85        8D-1        0.00000   0.00034   0.00000   0.00000   0.00000
  86        8D+2       -0.00115   0.00000   0.00057   0.00021  -0.00040
  87        8D-2        0.00000  -0.00026   0.00000   0.00000   0.00000
  88        9D 0       -0.00264   0.00000   0.00248   0.00325  -0.00478
  89        9D+1       -0.00236   0.00000   0.00482   0.00630  -0.00466
  90        9D-1        0.00000   0.00356   0.00000   0.00000   0.00000
  91        9D+2       -0.00158   0.00000   0.00141  -0.00144   0.00232
  92        9D-2        0.00000   0.00207   0.00000   0.00000   0.00000
  93 4   F  1S         -0.00149   0.00259   0.00000  -0.01003   0.00000
  94        2S          0.00457  -0.00740   0.00000   0.03280   0.00000
  95        3S          0.00119  -0.00232   0.00000   0.01146   0.00000
  96        4S         -0.00562   0.01514   0.00000  -0.01857   0.00000
  97        5S         -0.03000   0.03156   0.00000  -0.37060   0.00000
  98        6PX         0.00000   0.00000  -0.21765   0.00000   0.00104
  99        6PY         0.03592   0.22665   0.00000   0.01003   0.00000
 100        6PZ         0.25398   0.17596   0.00000  -0.01817   0.00000
 101        7PX         0.00000   0.00000  -0.25145   0.00000   0.00250
 102        7PY         0.04133   0.26242   0.00000   0.01163   0.00000
 103        7PZ         0.29499   0.20459   0.00000  -0.02013   0.00000
 104        8PX         0.00000   0.00000  -0.20799   0.00000  -0.00911
 105        8PY         0.03175   0.19459   0.00000   0.06269   0.00000
 106        8PZ         0.21356   0.16227   0.00000  -0.06463   0.00000
 107        9PX         0.00000   0.00000  -0.04177   0.00000  -0.15391
 108        9PY         0.00989   0.02543   0.00000   0.08205   0.00000
 109        9PZ         0.02769   0.02833   0.00000  -0.09267   0.00000
 110       10D 0        0.00140   0.00192   0.00000   0.00052   0.00000
 111       10D+1        0.00000   0.00000  -0.00006   0.00000   0.00035
 112       10D-1       -0.00203   0.00038   0.00000  -0.00051   0.00000
 113       10D+2       -0.00009   0.00155   0.00000  -0.00008   0.00000
 114       10D-2        0.00000   0.00000   0.00054   0.00000  -0.00075
 115       11D 0        0.00534   0.00699   0.00000   0.00245   0.00000
 116       11D+1        0.00000   0.00000   0.00042   0.00000   0.00285
 117       11D-1       -0.00725   0.00119   0.00000  -0.00077   0.00000
 118       11D+2       -0.00064   0.00548   0.00000   0.00092   0.00000
 119       11D-2        0.00000   0.00000   0.00179   0.00000  -0.00495
 120       12D 0        0.00154   0.00978   0.00000   0.00001   0.00000
 121       12D+1        0.00000   0.00000  -0.00232   0.00000  -0.00517
 122       12D-1       -0.00369   0.00214   0.00000   0.00785   0.00000
 123       12D+2       -0.00348   0.00720   0.00000   0.00278   0.00000
 124       12D-2        0.00000   0.00000   0.00512   0.00000   0.00192
 125       13F 0       -0.00010   0.00074   0.00000   0.00009   0.00000
 126       13F+1        0.00000   0.00000   0.00007   0.00000   0.00016
 127       13F-1       -0.00131  -0.00093   0.00000  -0.00032   0.00000
 128       13F+2       -0.00088   0.00048   0.00000   0.00023   0.00000
 129       13F-2        0.00000   0.00000   0.00012   0.00000  -0.00048
 130       13F+3        0.00000   0.00000   0.00034   0.00000  -0.00034
 131       13F-3       -0.00013  -0.00062   0.00000  -0.00017   0.00000
 132       14F 0        0.00022   0.00158   0.00000   0.00079   0.00000
 133       14F+1        0.00000   0.00000   0.00000   0.00000  -0.00034
 134       14F-1       -0.00170  -0.00153   0.00000   0.00009   0.00000
 135       14F+2       -0.00143   0.00107   0.00000  -0.00032   0.00000
 136       14F-2        0.00000   0.00000   0.00058   0.00000  -0.00033
 137       14F+3        0.00000   0.00000   0.00096   0.00000  -0.00084
 138       14F-3        0.00106  -0.00189   0.00000  -0.00022   0.00000
 139 5   F  1S         -0.00149  -0.00259   0.00000  -0.01003   0.00000
 140        2S          0.00457   0.00740   0.00000   0.03280   0.00000
 141        3S          0.00119   0.00232   0.00000   0.01146   0.00000
 142        4S         -0.00562  -0.01514   0.00000  -0.01857   0.00000
 143        5S         -0.03000  -0.03156   0.00000  -0.37060   0.00000
 144        6PX         0.00000   0.00000  -0.21765   0.00000   0.00104
 145        6PY        -0.03592   0.22665   0.00000  -0.01003   0.00000
 146        6PZ         0.25398  -0.17596   0.00000  -0.01817   0.00000
 147        7PX         0.00000   0.00000  -0.25145   0.00000   0.00250
 148        7PY        -0.04133   0.26242   0.00000  -0.01163   0.00000
 149        7PZ         0.29499  -0.20459   0.00000  -0.02013   0.00000
 150        8PX         0.00000   0.00000  -0.20799   0.00000  -0.00911
 151        8PY        -0.03175   0.19459   0.00000  -0.06269   0.00000
 152        8PZ         0.21356  -0.16227   0.00000  -0.06463   0.00000
 153        9PX         0.00000   0.00000  -0.04177   0.00000  -0.15391
 154        9PY        -0.00989   0.02543   0.00000  -0.08205   0.00000
 155        9PZ         0.02769  -0.02833   0.00000  -0.09267   0.00000
 156       10D 0        0.00140  -0.00192   0.00000   0.00052   0.00000
 157       10D+1        0.00000   0.00000  -0.00006   0.00000   0.00035
 158       10D-1        0.00203   0.00038   0.00000   0.00051   0.00000
 159       10D+2       -0.00009  -0.00155   0.00000  -0.00008   0.00000
 160       10D-2        0.00000   0.00000  -0.00054   0.00000   0.00075
 161       11D 0        0.00534  -0.00699   0.00000   0.00245   0.00000
 162       11D+1        0.00000   0.00000   0.00042   0.00000   0.00285
 163       11D-1        0.00725   0.00119   0.00000   0.00077   0.00000
 164       11D+2       -0.00064  -0.00548   0.00000   0.00092   0.00000
 165       11D-2        0.00000   0.00000  -0.00179   0.00000   0.00495
 166       12D 0        0.00154  -0.00978   0.00000   0.00001   0.00000
 167       12D+1        0.00000   0.00000  -0.00232   0.00000  -0.00517
 168       12D-1        0.00369   0.00214   0.00000  -0.00785   0.00000
 169       12D+2       -0.00348  -0.00720   0.00000   0.00278   0.00000
 170       12D-2        0.00000   0.00000  -0.00512   0.00000  -0.00192
 171       13F 0       -0.00010  -0.00074   0.00000   0.00009   0.00000
 172       13F+1        0.00000   0.00000   0.00007   0.00000   0.00016
 173       13F-1        0.00131  -0.00093   0.00000   0.00032   0.00000
 174       13F+2       -0.00088  -0.00048   0.00000   0.00023   0.00000
 175       13F-2        0.00000   0.00000  -0.00012   0.00000   0.00048
 176       13F+3        0.00000   0.00000   0.00034   0.00000  -0.00034
 177       13F-3        0.00013  -0.00062   0.00000   0.00017   0.00000
 178       14F 0        0.00022  -0.00158   0.00000   0.00079   0.00000
 179       14F+1        0.00000   0.00000   0.00000   0.00000  -0.00034
 180       14F-1        0.00170  -0.00153   0.00000  -0.00009   0.00000
 181       14F+2       -0.00143  -0.00107   0.00000  -0.00032   0.00000
 182       14F-2        0.00000   0.00000  -0.00058   0.00000   0.00033
 183       14F+3        0.00000   0.00000   0.00096   0.00000  -0.00084
 184       14F-3       -0.00106  -0.00189   0.00000   0.00022   0.00000
                          16        17        18        19        20
                        (B2)--V   (A1)--V   (A1)--V   (B1)--V   (A1)--V
     Eigenvalues --     0.02271   0.02628   0.08043   0.08685   0.11423
   1 1   C  1S          0.00000   0.03568   0.04546   0.00000   0.03158
   2        2S          0.00000  -0.09826  -0.13080   0.00000  -0.10920
   3        3S          0.00000  -0.03155  -0.10111   0.00000  -0.05630
   4        4S          0.00000  -0.15536   6.35126   0.00000   0.17133
   5        5S          0.00000  -0.08262   8.20562   0.00000   4.50192
   6        6PX         0.00000   0.00000   0.00000  -0.09049   0.00000
   7        6PY         0.08438   0.00000   0.00000   0.00000   0.00000
   8        6PZ         0.00000   0.03243  -0.11746   0.00000   0.07694
   9        7PX         0.00000   0.00000   0.00000  -0.07894   0.00000
  10        7PY         0.15910   0.00000   0.00000   0.00000   0.00000
  11        7PZ         0.00000   0.09246  -0.02909   0.00000  -0.09211
  12        8PX         0.00000   0.00000   0.00000   2.32308   0.00000
  13        8PY         0.69549   0.00000   0.00000   0.00000   0.00000
  14        8PZ         0.00000   0.76487   1.20784   0.00000  -2.39925
  15        9PX         0.00000   0.00000   0.00000   5.15335   0.00000
  16        9PY         1.36118   0.00000   0.00000   0.00000   0.00000
  17        9PZ         0.00000   1.46372   0.82569   0.00000   0.03996
  18       10D 0        0.00000   0.00588  -0.00313   0.00000   0.01160
  19       10D+1        0.00000   0.00000   0.00000   0.00244   0.00000
  20       10D-1        0.01008   0.00000   0.00000   0.00000   0.00000
  21       10D+2        0.00000  -0.00669   0.01251   0.00000  -0.01800
  22       10D-2        0.00000   0.00000   0.00000   0.00000   0.00000
  23       11D 0        0.00000  -0.00594   0.00472   0.00000  -0.08099
  24       11D+1        0.00000   0.00000   0.00000   0.05045   0.00000
  25       11D-1        0.02244   0.00000   0.00000   0.00000   0.00000
  26       11D+2        0.00000  -0.00735   0.11912   0.00000  -0.26122
  27       11D-2        0.00000   0.00000   0.00000   0.00000   0.00000
  28       12D 0        0.00000  -0.10523   0.11416   0.00000  -0.70556
  29       12D+1        0.00000   0.00000   0.00000   0.57051   0.00000
  30       12D-1       -0.00930   0.00000   0.00000   0.00000   0.00000
  31       12D+2        0.00000   0.10999   0.27420   0.00000  -0.55279
  32       12D-2        0.00000   0.00000   0.00000   0.00000   0.00000
  33       13F 0        0.00000  -0.00073  -0.00468   0.00000   0.00994
  34       13F+1        0.00000   0.00000   0.00000   0.00033   0.00000
  35       13F-1        0.00225   0.00000   0.00000   0.00000   0.00000
  36       13F+2        0.00000   0.00445   0.01574   0.00000   0.00480
  37       13F-2        0.00000   0.00000   0.00000   0.00000   0.00000
  38       13F+3        0.00000   0.00000   0.00000   0.00545   0.00000
  39       13F-3        0.00136   0.00000   0.00000   0.00000   0.00000
  40       14F 0        0.00000   0.01587  -0.02052   0.00000   0.07155
  41       14F+1        0.00000   0.00000   0.00000  -0.00742   0.00000
  42       14F-1       -0.00143   0.00000   0.00000   0.00000   0.00000
  43       14F+2        0.00000  -0.00133   0.16836   0.00000   0.05234
  44       14F-2        0.00000   0.00000   0.00000   0.00000   0.00000
  45       14F+3        0.00000   0.00000   0.00000  -0.03944   0.00000
  46       14F-3        0.01627   0.00000   0.00000   0.00000   0.00000
  47 2   H  1S          0.00000  -0.00065   0.02266  -0.00075  -0.03107
  48        2S          0.00000  -0.06220  -0.64832   0.19409   0.14295
  49        3S          0.00000  -0.47888  -3.44885   3.11015   1.52321
  50        4S          0.00000  -0.24173  -2.24890   7.16836  -0.92625
  51        5PX         0.00000   0.00015  -0.00900   0.00724   0.00465
  52        5PY         0.00739   0.00000   0.00000   0.00000   0.00000
  53        5PZ         0.00000   0.00627   0.00393  -0.00111   0.00061
  54        6PX         0.00000  -0.01864  -0.21563   0.02427   0.07643
  55        6PY        -0.00211   0.00000   0.00000   0.00000   0.00000
  56        6PZ         0.00000   0.02149   0.11248  -0.05695   0.03717
  57        7PX         0.00000   0.00244  -0.90069   0.11343   0.99319
  58        7PY        -0.13530   0.00000   0.00000   0.00000   0.00000
  59        7PZ         0.00000   0.00668   0.35207  -0.37273   0.32010
  60        8D 0        0.00000  -0.00115   0.00069   0.00029  -0.00008
  61        8D+1        0.00000   0.00284   0.00980  -0.00452  -0.00050
  62        8D-1       -0.00074   0.00000   0.00000   0.00000   0.00000
  63        8D+2        0.00000  -0.00115  -0.00783   0.00249   0.00072
  64        8D-2        0.00124   0.00000   0.00000   0.00000   0.00000
  65        9D 0        0.00000   0.01537   0.02194   0.02009  -0.04405
  66        9D+1        0.00000  -0.02138  -0.01499   0.03020   0.00956
  67        9D-1        0.03144   0.00000   0.00000   0.00000   0.00000
  68        9D+2        0.00000  -0.00326  -0.01423  -0.08043   0.04559
  69        9D-2       -0.01956   0.00000   0.00000   0.00000   0.00000
  70 3   H  1S          0.00000  -0.00065   0.02266   0.00075  -0.03107
  71        2S          0.00000  -0.06220  -0.64832  -0.19409   0.14295
  72        3S          0.00000  -0.47888  -3.44885  -3.11015   1.52321
  73        4S          0.00000  -0.24173  -2.24890  -7.16836  -0.92625
  74        5PX         0.00000  -0.00015   0.00900   0.00724  -0.00465
  75        5PY         0.00739   0.00000   0.00000   0.00000   0.00000
  76        5PZ         0.00000   0.00627   0.00393   0.00111   0.00061
  77        6PX         0.00000   0.01864   0.21563   0.02427  -0.07643
  78        6PY        -0.00211   0.00000   0.00000   0.00000   0.00000
  79        6PZ         0.00000   0.02149   0.11248   0.05695   0.03717
  80        7PX         0.00000  -0.00244   0.90069   0.11343  -0.99319
  81        7PY        -0.13530   0.00000   0.00000   0.00000   0.00000
  82        7PZ         0.00000   0.00668   0.35207   0.37273   0.32010
  83        8D 0        0.00000  -0.00115   0.00069  -0.00029  -0.00008
  84        8D+1        0.00000  -0.00284  -0.00980  -0.00452   0.00050
  85        8D-1       -0.00074   0.00000   0.00000   0.00000   0.00000
  86        8D+2        0.00000  -0.00115  -0.00783  -0.00249   0.00072
  87        8D-2       -0.00124   0.00000   0.00000   0.00000   0.00000
  88        9D 0        0.00000   0.01537   0.02194  -0.02009  -0.04405
  89        9D+1        0.00000   0.02138   0.01499   0.03020  -0.00956
  90        9D-1        0.03144   0.00000   0.00000   0.00000   0.00000
  91        9D+2        0.00000  -0.00326  -0.01423   0.08043   0.04559
  92        9D-2        0.01956   0.00000   0.00000   0.00000   0.00000
  93 4   F  1S          0.02812  -0.02864   0.01513   0.00000  -0.00307
  94        2S         -0.07252   0.07453  -0.01967   0.00000   0.04227
  95        3S         -0.02626   0.02715  -0.00904   0.00000   0.01224
  96        4S         -0.19210   0.19548  -0.33651   0.00000  -0.35836
  97        5S         -0.59893   0.67586  -1.25999   0.00000  -2.95996
  98        6PX         0.00000   0.00000   0.00000  -0.02723   0.00000
  99        6PY        -0.00903  -0.04107   0.01309   0.00000  -0.06762
 100        6PZ        -0.06012  -0.01048   0.00854   0.00000   0.04498
 101        7PX         0.00000   0.00000   0.00000  -0.02742   0.00000
 102        7PY        -0.01230  -0.04475   0.01303   0.00000  -0.07894
 103        7PZ        -0.06999  -0.01129   0.01457   0.00000   0.05181
 104        8PX         0.00000   0.00000   0.00000  -0.11904   0.00000
 105        8PY         0.04104  -0.12607   0.25033   0.00000   0.16342
 106        8PZ        -0.10901  -0.01539  -0.16653   0.00000  -0.20192
 107        9PX         0.00000   0.00000   0.00000  -0.37082   0.00000
 108        9PY        -0.10994  -0.21756   0.24006   0.00000   0.51248
 109        9PZ        -0.11790  -0.18338  -0.07874   0.00000  -1.10698
 110       10D 0        0.00029   0.00016  -0.00123   0.00000   0.00207
 111       10D+1        0.00000   0.00000   0.00000  -0.00143   0.00000
 112       10D-1       -0.00092   0.00111   0.00029   0.00000  -0.00038
 113       10D+2       -0.00057   0.00006  -0.00014   0.00000  -0.00046
 114       10D-2        0.00000   0.00000   0.00000   0.00141   0.00000
 115       11D 0        0.00282   0.00254  -0.00273   0.00000   0.00165
 116       11D+1        0.00000   0.00000   0.00000   0.00228   0.00000
 117       11D-1        0.00254  -0.00282   0.00606   0.00000   0.01098
 118       11D+2        0.00379  -0.00010   0.00452   0.00000   0.00452
 119       11D-2        0.00000   0.00000   0.00000  -0.00012   0.00000
 120       12D 0       -0.00197  -0.02026  -0.01442   0.00000  -0.00771
 121       12D+1        0.00000   0.00000   0.00000  -0.06380   0.00000
 122       12D-1        0.00106   0.02574   0.06268   0.00000   0.08155
 123       12D+2       -0.00734  -0.02498   0.03429   0.00000   0.00995
 124       12D-2        0.00000   0.00000   0.00000   0.04793   0.00000
 125       13F 0       -0.00012  -0.00005  -0.00066   0.00000   0.00015
 126       13F+1        0.00000   0.00000   0.00000   0.00075   0.00000
 127       13F-1       -0.00024  -0.00055  -0.00014   0.00000  -0.00132
 128       13F+2       -0.00025  -0.00003   0.00066   0.00000  -0.00060
 129       13F-2        0.00000   0.00000   0.00000  -0.00046   0.00000
 130       13F+3        0.00000   0.00000   0.00000   0.00010   0.00000
 131       13F-3       -0.00010  -0.00041   0.00033   0.00000  -0.00055
 132       14F 0        0.00131   0.00069   0.00317   0.00000   0.00310
 133       14F+1        0.00000   0.00000   0.00000  -0.00420   0.00000
 134       14F-1        0.00093   0.00308   0.00480   0.00000   0.00766
 135       14F+2        0.00170   0.00012   0.00102   0.00000   0.00588
 136       14F-2        0.00000   0.00000   0.00000   0.00527   0.00000
 137       14F+3        0.00000   0.00000   0.00000   0.00218   0.00000
 138       14F-3        0.00019   0.00314  -0.00307   0.00000   0.00214
 139 5   F  1S         -0.02812  -0.02864   0.01513   0.00000  -0.00307
 140        2S          0.07252   0.07453  -0.01967   0.00000   0.04227
 141        3S          0.02626   0.02715  -0.00904   0.00000   0.01224
 142        4S          0.19210   0.19548  -0.33651   0.00000  -0.35836
 143        5S          0.59893   0.67586  -1.25999   0.00000  -2.95996
 144        6PX         0.00000   0.00000   0.00000  -0.02723   0.00000
 145        6PY        -0.00903   0.04107  -0.01309   0.00000   0.06762
 146        6PZ         0.06012  -0.01048   0.00854   0.00000   0.04498
 147        7PX         0.00000   0.00000   0.00000  -0.02742   0.00000
 148        7PY        -0.01230   0.04475  -0.01303   0.00000   0.07894
 149        7PZ         0.06999  -0.01129   0.01457   0.00000   0.05181
 150        8PX         0.00000   0.00000   0.00000  -0.11904   0.00000
 151        8PY         0.04104   0.12607  -0.25033   0.00000  -0.16342
 152        8PZ         0.10901  -0.01539  -0.16653   0.00000  -0.20192
 153        9PX         0.00000   0.00000   0.00000  -0.37082   0.00000
 154        9PY        -0.10994   0.21756  -0.24006   0.00000  -0.51248
 155        9PZ         0.11790  -0.18338  -0.07874   0.00000  -1.10698
 156       10D 0       -0.00029   0.00016  -0.00123   0.00000   0.00207
 157       10D+1        0.00000   0.00000   0.00000  -0.00143   0.00000
 158       10D-1       -0.00092  -0.00111  -0.00029   0.00000   0.00038
 159       10D+2        0.00057   0.00006  -0.00014   0.00000  -0.00046
 160       10D-2        0.00000   0.00000   0.00000  -0.00141   0.00000
 161       11D 0       -0.00282   0.00254  -0.00273   0.00000   0.00165
 162       11D+1        0.00000   0.00000   0.00000   0.00228   0.00000
 163       11D-1        0.00254   0.00282  -0.00606   0.00000  -0.01098
 164       11D+2       -0.00379  -0.00010   0.00452   0.00000   0.00452
 165       11D-2        0.00000   0.00000   0.00000   0.00012   0.00000
 166       12D 0        0.00197  -0.02026  -0.01442   0.00000  -0.00771
 167       12D+1        0.00000   0.00000   0.00000  -0.06380   0.00000
 168       12D-1        0.00106  -0.02574  -0.06268   0.00000  -0.08155
 169       12D+2        0.00734  -0.02498   0.03429   0.00000   0.00995
 170       12D-2        0.00000   0.00000   0.00000  -0.04793   0.00000
 171       13F 0        0.00012  -0.00005  -0.00066   0.00000   0.00015
[...]
      7 -0.695147D-01 -0.319098D-01  0.595910D-01  0.833287D-02  0.494027D-02
      8 -0.388026D-01 -0.140678D+00  0.119004D+00 -0.796846D-02 -0.102171D-01
      9  0.635703D-01  0.107748D+00 -0.210321D+00  0.110435D-02  0.140598D-02
     10 -0.681212D-01 -0.196948D-01 -0.341122D-01  0.710775D-02 -0.237857D-02
     11 -0.111559D-01 -0.123659D+00 -0.787718D-01 -0.133893D-01 -0.166494D-01
     12 -0.193224D-01 -0.787719D-01 -0.214618D+00 -0.681768D-02 -0.140473D-01
     13 -0.258156D+00  0.224408D-01  0.388648D-01 -0.359547D-01  0.403767D-02
     14  0.139019D-01 -0.761509D-01  0.351498D-02  0.348498D-01  0.805580D-02
     15  0.240749D-01  0.351516D-02 -0.720911D-01 -0.274687D-02  0.643935D-03
                6             7             8             9            10 
      6  0.600850D-01
      7 -0.634825D-02  0.900293D-01
      8  0.224859D-01  0.459821D-01  0.130253D+00
      9  0.357686D-02 -0.670453D-01 -0.112629D+00  0.239738D+00
     10  0.116549D-02  0.710799D-02  0.219899D-02 -0.147662D-02  0.930722D-01
     11 -0.422191D-01  0.790421D-03  0.119078D-01  0.244030D-02  0.462031D-01
     12 -0.110585D-01 -0.150043D-01 -0.257313D-01 -0.396159D-01  0.800270D-01
     13  0.701938D-03 -0.359555D-01 -0.141008D-02  0.384726D-02 -0.391667D-01
     14 -0.351996D-02 -0.198030D-01  0.873374D-02  0.103484D-02 -0.263287D-01
     15  0.729873D-02  0.288069D-01 -0.312932D-02  0.662152D-02 -0.456036D-01
               11            12            13            14            15 
     11  0.122130D+00
     12  0.124869D+00  0.266318D+00
     13 -0.224483D-01 -0.388827D-01  0.369232D+00
     14  0.627065D-02 -0.631849D-02 -0.262008D-02  0.530907D-01
     15 -0.631840D-02 -0.102647D-02 -0.453130D-02  0.528863D-02  0.591973D-01
 FormGI is forming the generalized inverse of G from B-inverse, IUseBI=4.
 Force constants in internal coordinates: 
                1             2             3             4             5 
      1  0.336932D+00
      2  0.393191D-02  0.336932D+00
      3  0.151821D-01  0.151821D-01  0.369301D+00
      4  0.151821D-01  0.151821D-01  0.549931D-01  0.369301D+00
      5  0.297154D-02  0.297154D-02 -0.634521D-02 -0.118711D-01  0.225928D-01
      6  0.605654D-03 -0.177705D-02  0.144371D-01 -0.186968D-01 -0.109802D-01
      7  0.224365D-02 -0.425320D-02 -0.174626D-01  0.172072D-01 -0.168017D-01
      8 -0.177705D-02  0.605654D-03  0.144371D-01 -0.186968D-01 -0.109802D-01
      9 -0.425320D-02  0.224365D-02 -0.174626D-01  0.172072D-01 -0.168017D-01
     10  0.120035D-03  0.120035D-03  0.134315D-01  0.162388D-01  0.343552D-01
     11  0.291721D-02  0.291721D-02  0.105534D-01 -0.384276D-01  0.138725D-01
     12 -0.238384D-02 -0.238384D-02  0.300458D-01 -0.726797D-02 -0.646349D-02
     13  0.204066D-02 -0.442450D-02  0.150229D-01 -0.363398D-02 -0.323175D-02
     14  0.442450D-02 -0.204066D-02 -0.150229D-01  0.363398D-02  0.323175D-02
                6             7             8             9            10 
      6  0.554831D-01
      7 -0.219182D-01  0.110488D+00
      8  0.384840D-02  0.283769D-01  0.554831D-01
      9  0.283769D-01 -0.512189D-01 -0.219182D-01  0.110488D+00
     10 -0.580336D-01 -0.515612D-01 -0.580336D-01 -0.515612D-01  0.195798D+00
     11  0.242221D-01 -0.165992D-01  0.242221D-01 -0.165992D-01 -0.315149D-01
     12  0.942385D-02 -0.170073D-01  0.942385D-02 -0.170073D-01  0.232774D-01
     13  0.215143D-01  0.654061D-02 -0.120904D-01 -0.235480D-01  0.116387D-01
     14  0.120904D-01  0.235480D-01 -0.215143D-01 -0.654061D-02 -0.116387D-01
               11            12            13            14 
     11  0.479267D-01
     12  0.402715D-02  0.296122D-01
     13  0.201358D-02  0.148061D-01  0.358447D-01
     14 -0.201358D-02 -0.148061D-01  0.210386D-01  0.358447D-01
 Leave Link  716 at Fri Sep  6 16:26:14 2024, MaxMem=  1610612736 cpu:               0.2 elap:               0.0
 (Enter /Users/asuyarger/Applications/G16/g16/l103.exe)

 GradGradGradGradGradGradGradGradGradGradGradGradGradGradGradGradGradGrad
 Berny optimization.
 Red2BG is reusing G-inverse.
 Internal  Forces:  Max     0.000002408 RMS     0.000001185
 Search for a local minimum.
 Step number   1 out of a maximum of    2
 All quantities printed in internal units (Hartrees-Bohrs-Radians)
 Second derivative matrix not updated -- analytic derivatives used.
 The second derivative matrix:
                          R1        R2        R3        R4        A1
           R1           0.33693
           R2           0.00393   0.33693
           R3           0.01518   0.01518   0.36930
           R4           0.01518   0.01518   0.05499   0.36930
           A1           0.00297   0.00297  -0.00635  -0.01187   0.02259
           A2           0.00061  -0.00178   0.01444  -0.01870  -0.01098
           A3           0.00224  -0.00425  -0.01746   0.01721  -0.01680
           A4          -0.00178   0.00061   0.01444  -0.01870  -0.01098
           A5          -0.00425   0.00224  -0.01746   0.01721  -0.01680
           A6           0.00012   0.00012   0.01343   0.01624   0.03436
           D1           0.00292   0.00292   0.01055  -0.03843   0.01387
           D2          -0.00238  -0.00238   0.03005  -0.00727  -0.00646
           D3           0.00204  -0.00442   0.01502  -0.00363  -0.00323
           D4           0.00442  -0.00204  -0.01502   0.00363   0.00323
                          A2        A3        A4        A5        A6
           A2           0.05548
           A3          -0.02192   0.11049
           A4           0.00385   0.02838   0.05548
           A5           0.02838  -0.05122  -0.02192   0.11049
           A6          -0.05803  -0.05156  -0.05803  -0.05156   0.19580
           D1           0.02422  -0.01660   0.02422  -0.01660  -0.03151
           D2           0.00942  -0.01701   0.00942  -0.01701   0.02328
           D3           0.02151   0.00654  -0.01209  -0.02355   0.01164
           D4           0.01209   0.02355  -0.02151  -0.00654  -0.01164
                          D1        D2        D3        D4
           D1           0.04793
           D2           0.00403   0.02961
           D3           0.00201   0.01481   0.03584
           D4          -0.00201  -0.01481   0.02104   0.03584
 ITU=  0
     Eigenvalues ---    0.04818   0.08553   0.08659   0.18317   0.26965
     Eigenvalues ---    0.33214   0.33346   0.33454   0.43876
 Angle between quadratic step and forces=  42.00 degrees.
 Linear search not attempted -- first point.
 Iteration  1 RMS(Cart)=  0.00000394 RMS(Int)=  0.00000000
 Iteration  2 RMS(Cart)=  0.00000000 RMS(Int)=  0.00000000
 ITry= 1 IFail=0 DXMaxC= 8.15D-06 DCOld= 1.00D+10 DXMaxT= 3.00D-01 DXLimC= 3.00D+00 Rises=F
 ClnCor:  largest displacement from symmetrization is 4.36D-12 for atom     1.
 Variable       Old X    -DE/DX   Delta X   Delta X   Delta X     New X
                                 (Linear)    (Quad)   (Total)
    R1        2.05958   0.00000   0.00000   0.00001   0.00001   2.05959
    R2        2.05958   0.00000   0.00000   0.00001   0.00001   2.05959
    R3        2.57619   0.00000   0.00000   0.00000   0.00000   2.57619
    R4        2.57619   0.00000   0.00000   0.00000   0.00000   2.57619
    A1        1.98213  -0.00000   0.00000  -0.00001  -0.00001   1.98212
    A2        1.89679  -0.00000   0.00000  -0.00000  -0.00000   1.89679
    A3        1.89679  -0.00000   0.00000  -0.00000  -0.00000   1.89679
    A4        1.89679  -0.00000   0.00000  -0.00000  -0.00000   1.89679
    A5        1.89679  -0.00000   0.00000  -0.00000  -0.00000   1.89679
    A6        1.89279   0.00000   0.00000   0.00001   0.00001   1.89280
    D1        2.16495  -0.00000   0.00000  -0.00001  -0.00001   2.16494
    D2       -2.16495   0.00000   0.00000   0.00001   0.00001  -2.16494
    D3        2.05912   0.00000   0.00000   0.00000   0.00000   2.05912
    D4       -2.05912  -0.00000   0.00000  -0.00000  -0.00000  -2.05912
         Item               Value     Threshold  Converged?
 Maximum Force            0.000002     0.000015     YES
 RMS     Force            0.000001     0.000010     YES
 Maximum Displacement     0.000008     0.000060     YES
 RMS     Displacement     0.000004     0.000040     YES
 Predicted change in Energy=-3.346726D-11
 Optimization completed.
    -- Stationary point found.
                           ----------------------------
                           !   Optimized Parameters   !
                           ! (Angstroms and Degrees)  !
 --------------------------                            --------------------------
 ! Name  Definition              Value          Derivative Info.                !
 --------------------------------------------------------------------------------
 ! R1    R(1,2)                  1.0899         -DE/DX =    0.0                 !
 ! R2    R(1,3)                  1.0899         -DE/DX =    0.0                 !
 ! R3    R(1,4)                  1.3633         -DE/DX =    0.0                 !
 ! R4    R(1,5)                  1.3633         -DE/DX =    0.0                 !
 ! A1    A(2,1,3)              113.5675         -DE/DX =    0.0                 !
 ! A2    A(2,1,4)              108.6781         -DE/DX =    0.0                 !
 ! A3    A(2,1,5)              108.6781         -DE/DX =    0.0                 !
 ! A4    A(3,1,4)              108.6781         -DE/DX =    0.0                 !
 ! A5    A(3,1,5)              108.6781         -DE/DX =    0.0                 !
 ! A6    A(4,1,5)              108.4487         -DE/DX =    0.0                 !
 ! D1    D(2,1,4,3)            124.0423         -DE/DX =    0.0                 !
 ! D2    D(2,1,5,3)           -124.0423         -DE/DX =    0.0                 !
 ! D3    D(2,1,5,4)            117.9789         -DE/DX =    0.0                 !
 ! D4    D(3,1,5,4)           -117.9789         -DE/DX =    0.0                 !
 --------------------------------------------------------------------------------
 GradGradGradGradGradGradGradGradGradGradGradGradGradGradGradGradGradGrad

 Leave Link  103 at Fri Sep  6 16:26:14 2024, MaxMem=  1610612736 cpu:               0.1 elap:               0.0
 (Enter /Users/asuyarger/Applications/G16/g16/l9999.exe)

 ----------------------------------------------------------------------

 Electric dipole moment (input orientation):
 (Debye = 10**-18 statcoulomb cm , SI units = C m)
                  (au)            (Debye)         (10**-30 SI)
   Tot        0.777073D+00      0.197512D+01      0.658830D+01
   x          0.448639D+00      0.114033D+01      0.380372D+01
   y         -0.317244D+00     -0.806354D+00     -0.268971D+01
   z         -0.549474D+00     -0.139662D+01     -0.465863D+01

 Dipole polarizability, Alpha (input orientation).
 (esu units = cm**3 , SI units = C**2 m**2 J**-1)
 Alpha(0;0):
               (au)            (10**-24 esu)      (10**-40 SI)
   iso        0.180547D+02      0.267542D+01      0.297681D+01
   aniso      0.196157D+01      0.290675D+00      0.323420D+00
   xx         0.188084D+02      0.278711D+01      0.310108D+01
   yx         0.293615D+00      0.435093D-01      0.484106D-01
   yy         0.173201D+02      0.256658D+01      0.285571D+01
   zx         0.508596D+00      0.753661D-01      0.838561D-01
   zy         0.619462D+00      0.917947D-01      0.102135D+00
   zz         0.180355D+02      0.267258D+01      0.297364D+01

 First dipole hyperpolarizability, Beta (input orientation).
 ||, _|_  parallel and perpendicular components, (z) with respect to z axis,
 vector components x,y,z.  Values do not include the 1/n! factor of 1/2.
 (esu units = statvolt**-1 cm**4 , SI units = C**3 m**3 J**-2)
 Beta(0;0,0):
               (au)            (10**-30 esu)      (10**-50 SI)
   || (z)    -0.306524D+02     -0.264813D+00     -0.982826D-01
   _|_(z)    -0.102175D+02     -0.882709D-01     -0.327609D-01
   x          0.125137D+03      0.108108D+01      0.401233D+00
   y         -0.884873D+02     -0.764461D+00     -0.283722D+00
   z         -0.153262D+03     -0.132406D+01     -0.491413D+00
   ||         0.433490D+02      0.374502D+00      0.138993D+00
   xxx        0.225000D+02      0.194382D+00      0.721431D-01
   xxy       -0.440895D+01     -0.380899D-01     -0.141367D-01
   yxy        0.122401D+02      0.105745D+00      0.392462D-01
   yyy       -0.273077D+02     -0.235917D+00     -0.875582D-01
   xxz       -0.763668D+01     -0.659749D-01     -0.244859D-01
   yxz       -0.456246D+01     -0.394161D-01     -0.146289D-01
   yyz       -0.108626D+02     -0.938441D-01     -0.348293D-01
   zxz        0.697213D+01      0.602338D-01      0.223552D-01
   zyz        0.222084D+01      0.191863D-01      0.712082D-02
   zzz       -0.325880D+02     -0.281535D+00     -0.104489D+00

 ----------------------------------------------------------------------

 Dipole orientation:
     6         -1.20627918         -1.12920650         -1.60829269
     1         -0.91492613          0.56904915         -0.48005118
     1         -1.49763223         -2.82746215         -0.48005118
     9          0.85372071         -1.48262046         -3.11436873
     9         -3.26627908         -0.77579254         -3.11436873

 Electric dipole moment (dipole orientation):
 (Debye = 10**-18 statcoulomb cm , SI units = C m)
                  (au)            (Debye)         (10**-30 SI)
   Tot        0.777073D+00      0.197512D+01      0.658830D+01
   x          0.000000D+00      0.000000D+00      0.000000D+00
   y          0.000000D+00      0.000000D+00      0.000000D+00
   z          0.777073D+00      0.197512D+01      0.658830D+01

 Dipole polarizability, Alpha (dipole orientation).
 (esu units = cm**3 , SI units = C**2 m**2 J**-1)
 Alpha(0;0):
               (au)            (10**-24 esu)      (10**-40 SI)
   iso        0.180547D+02      0.267542D+01      0.297681D+01
   aniso      0.196157D+01      0.290675D+00      0.323420D+00
   xx         0.191590D+02      0.283907D+01      0.315889D+01
   yx        -0.376827D+00     -0.558400D-01     -0.621304D-01
   yy         0.170272D+02      0.252316D+01      0.280740D+01
   zx         0.000000D+00      0.000000D+00      0.000000D+00
   zy         0.000000D+00      0.000000D+00      0.000000D+00
   zz         0.179778D+02      0.266404D+01      0.296415D+01

 First dipole hyperpolarizability, Beta (dipole orientation).
 ||, _|_  parallel and perpendicular components, (z) with respect to z axis,
 vector components x,y,z.  Values do not include the 1/n! factor of 1/2.
 (esu units = statvolt**-1 cm**4 , SI units = C**3 m**3 J**-2)
 Beta(0;0,0):
               (au)            (10**-30 esu)      (10**-50 SI)
   || (z)     0.433490D+02      0.374502D+00      0.138993D+00
   _|_(z)     0.144497D+02      0.124834D+00      0.463309D-01
   x          0.000000D+00      0.000000D+00      0.000000D+00
   y          0.000000D+00      0.000000D+00      0.000000D+00
   z          0.216745D+03      0.187251D+01      0.694963D+00
   ||         0.433490D+02      0.374502D+00      0.138993D+00
   xxx        0.000000D+00      0.000000D+00      0.000000D+00
   xxy        0.000000D+00      0.000000D+00      0.000000D+00
   yxy        0.000000D+00      0.000000D+00      0.000000D+00
   yyy        0.000000D+00      0.000000D+00      0.000000D+00
   xxz        0.144197D+02      0.124575D+00      0.462348D-01
   yxz        0.194611D+01      0.168128D-01      0.623992D-02
   yyz        0.254294D+02      0.219690D+00      0.815359D-01
   zxz        0.000000D+00      0.000000D+00      0.000000D+00
   zyz        0.000000D+00      0.000000D+00      0.000000D+00
   zzz        0.323992D+02      0.279904D+00      0.103884D+00

 ----------------------------------------------------------------------
 1\1\GINC-JEFFSMACSTUDIO\Freq\RB3LYP\Aug-CC-pVTZ\C1H2F2\ROOT\06-Sep-202
 4\0\\#P Geom=AllCheck Guess=TCheck SCRF=Check GenChk RB3LYP/Aug-CC-pVT
 Z Freq\\R32 DFT B3LPY aug-cc-pVTZ Opt Freq - Full - NBO\\0,1\C,-0.9225
 519587,0.7985269935,-0.0106943984\H,-0.577863651,-0.2348662579,0.02303
 85526\H,-0.5778441952,1.3444309263,-0.8887690009\F,-0.4796106626,1.443
 171353,1.10587196\F,-2.2857597872,0.8046262684,-0.0001592308\\Version=
 EM64M-G16RevA.03\State=1-A1\HF=-239.0884009\RMSD=3.851e-09\RMSF=1.347e
 -06\ZeroPoint=0.0325441\Thermal=0.0356795\Dipole=0.4486393,-0.3172442,
 -0.5494735\DipoleDeriv=1.3777788,0.1186103,0.2054535,0.1186103,0.83261
 18,0.2178959,0.2054535,0.2178959,1.0842223,0.0056177,0.0242285,0.00482
 ,0.0638855,-0.1089639,-0.0315243,-0.0180752,0.0332355,0.0274639,0.0056
 159,-0.0079406,0.023395,-0.0475975,-0.007383,0.0918818,0.0462902,0.027
 1219,-0.0741152,-0.3933616,-0.0841298,-0.1457196,-0.1572488,-0.4334176
 ,-0.2695263,-0.2723655,-0.2695248,-0.7446449,-0.9956507,-0.0507684,-0.
 0879488,0.0223506,-0.2828473,-0.0087271,0.038697,-0.0087286,-0.2929261
 \Polar=18.8083717,0.293615,17.3201472,0.5085955,0.6194615,18.0354544\P
 olarDeriv=2.7434717,0.2580521,-3.080421,0.4471452,0.5775493,-2.4136006
 ,0.1617397,-2.4681146,4.3597963,0.1453899,0.2443528,-2.5765529,0.28030
 89,0.145405,1.2998585,-2.3003177,-3.1859477,1.7885837,1.3281907,-1.691
 4706,1.8923993,-0.0433861,-0.0485358,0.7074367,-2.1321952,1.8825516,-7
 .6197189,-0.0793677,-0.3009643,-1.2454837,0.1410735,-0.0675925,-0.0584
 39,0.6823807,-0.8478967,-0.1479741,1.3282932,0.8081878,1.045735,-1.486
 5882,-0.5373889,1.554201,1.1882969,1.0460741,1.8163006,-0.5505592,-1.7
 05516,2.437444,-1.7760375,-0.5623327,-1.9285731,1.5189382,2.0286182,-5
 .8520427,1.735103,1.0395359,0.2920758,1.8005485,0.4670075,0.8313475,0.
 8350631,1.1106657,1.7068289,0.5205208,1.8927872,1.1764311,1.4463743,0.
 5205094,0.6041999,1.711736,1.920386,4.389812,-7.1350587,-0.4143052,-0.
 1497891,-0.7177193,-0.4586321,-0.6793847,-0.0529044,-1.5711768,-0.2632
 068,-0.0359839,-0.1306597,0.2081614,-0.0917192,-0.035989,0.0829536,-1.
 6127373,0.0848402,-0.1783788\HyperPolar=22.4999992,-4.4089467,12.24010
 26,-27.3076617,-7.6366752,-4.5624588,-10.8625694,6.9721288,2.22084,-32
 .5880405\Quadrupole=-0.9740591,0.7420329,0.2320262,-0.6724896,-1.16482
 84,-0.4416499\PG=C02V [C2(C1),SGV(F2),SGV'(H2)]\NImag=0\\0.46530354,-0
 .03839391,0.63158668,-0.06650456,-0.06465153,0.55693161,-0.06951203,0.
 06755777,0.00216104,0.09002613,0.07445048,-0.29109921,0.02090445,-0.08
 104985,0.30990990,-0.00181834,0.03216026,-0.05990208,0.00629916,-0.008
 90711,0.06008503,-0.06951465,-0.03190984,0.05959096,0.00833287,0.00494
 027,-0.00634825,0.09002926,-0.03880256,-0.14067777,0.11900387,-0.00796
 846,-0.01021708,0.02248594,0.04598211,0.13025335,0.06357033,0.10774806
 ,-0.21032090,0.00110435,0.00140598,0.00357686,-0.06704532,-0.11262918,
 0.23973845,-0.06812125,-0.01969484,-0.03411225,0.00710775,-0.00237857,
 0.00116549,0.00710799,0.00219899,-0.00147662,0.09307217,-0.01115589,-0
 .12365883,-0.07877176,-0.01338928,-0.01664941,-0.04221913,0.00079042,0
 .01190776,0.00244030,0.04620308,0.12212984,-0.01932235,-0.07877195,-0.
 21461752,-0.00681768,-0.01404726,-0.01105853,-0.01500427,-0.02573131,-
 0.03961593,0.08002701,0.12486900,0.26631846,-0.25815560,0.02244082,0.0
 3886481,-0.03595472,0.00403767,0.00070194,-0.03595546,-0.00141008,0.00
 384726,-0.03916666,-0.02244833,-0.03888271,0.36923244,0.01390188,-0.07
 615087,0.00351498,0.03484982,0.00805580,-0.00351996,-0.01980296,0.0087
 3374,0.00103484,-0.02632866,0.00627065,-0.00631849,-0.00262008,0.05309
 069,0.02407492,0.00351516,-0.07209112,-0.00274687,0.00064394,0.0072987
 3,0.02880688,-0.00312932,0.00662152,-0.04560363,-0.00631840,-0.0010264
 7,-0.00453130,0.00528863,0.05919734\\0.00000198,-0.00000140,-0.0000024
 2,-0.00000084,0.00000173,0.00000038,-0.00000084,-0.00000054,0.00000169
 ,-0.00000174,-0.00000046,-0.00000080,0.00000145,0.00000067,0.00000115\
 \\@


 NATURE REVEALS EVERY SECRET ONCE.
                    - RALPH WALDO EMERSON
 Job cpu time:       0 days  0 hours  0 minutes 18.8 seconds.
 Elapsed time:       0 days  0 hours  0 minutes 17.8 seconds.
 File lengths (MBytes):  RWF=     27 Int=      0 D2E=      0 Chk=      4 Scr=      1
 Normal termination of Gaussian 16 at Fri Sep  6 16:26:14 2024.
